
     Program PWSCF v.5.1.2 starts on 12Nov2015 at 11:30:54 

     This program is part of the open-source Quantum ESPRESSO suite
     for quantum simulation of materials; please cite
         "P. Giannozzi et al., J. Phys.:Condens. Matter 21 395502 (2009);
          URL http://www.quantum-espresso.org", 
     in publications or presentations arising from this work. More details at
     http://www.quantum-espresso.org/quote

     Parallel version (MPI), running on     2 processors
     R & G space division:  proc/nbgrp/npool/nimage =       2
     Reading input from wfn.in

     Current dimensions of program PWSCF are:
     Max number of different atomic species (ntypx) = 10
     Max number of k-points (npk) =  40000
     Max angular momentum in pseudopotentials (lmaxx) =  3

     Atomic positions and unit cell read from directory:
     ./GaAs.save/

               file 31-Ga.PBE.UPF: wavefunction(s)  4d 4f renormalized
               file 33-As.PBE.UPF: wavefunction(s)  4f renormalized

     Subspace diagonalization in iterative solution of the eigenvalue problem:
     a serial algorithm will be used


     Parallelization info
     --------------------
     sticks:   dense  smooth     PW     G-vecs:    dense   smooth      PW
     Min          81      81     30                  645      645     165
     Max          82      82     31                  646      646     166
     Sum         163     163     61                 1291     1291     331



     bravais-lattice index     =            0
     lattice parameter (alat)  =       7.5544  a.u.
     unit-cell volume          =     304.8518 (a.u.)^3
     number of atoms/cell      =            2
     number of atomic types    =            2
     number of electrons       =         8.00
     number of Kohn-Sham states=           10
     kinetic-energy cutoff     =      10.0000  Ry
     charge density cutoff     =      40.0000  Ry
     Exchange-correlation      = PBE ( 1  4  3  4 0 0)

     celldm(1)=   7.554422  celldm(2)=   0.000000  celldm(3)=   0.000000
     celldm(4)=   0.000000  celldm(5)=   0.000000  celldm(6)=   0.000000

     crystal axes: (cart. coord. in units of alat)
               a(1) = (   0.000000   0.707107   0.707107 )  
               a(2) = (   0.707107   0.000000   0.707107 )  
               a(3) = (   0.707107   0.707107   0.000000 )  

     reciprocal axes: (cart. coord. in units 2 pi/alat)
               b(1) = ( -0.707107  0.707107  0.707107 )  
               b(2) = (  0.707107 -0.707107  0.707107 )  
               b(3) = (  0.707107  0.707107 -0.707107 )  


     PseudoPot. # 1 for Ga read from file:
     ../../Pseudos/31-Ga.PBE.UPF
     MD5 check sum: d2addd91d8bcf9a88adfbbdfd2637de8
     Pseudo is Norm-conserving, Zval =  3.0
     Generated using FHI98PP, converted with fhi2upf.x v.5.0.2
     Using radial grid of  529 points,  3 beta functions with: 
                l(1) =   1
                l(2) =   2
                l(3) =   3

     PseudoPot. # 2 for As read from file:
     ../../Pseudos/33-As.PBE.UPF
     MD5 check sum: 9c0f5dd9d369d21dd57660ed5a27ee1c
     Pseudo is Norm-conserving, Zval =  5.0
     Generated using FHI98PP, converted with fhi2upf.x v.5.0.2
     Using radial grid of  531 points,  3 beta functions with: 
                l(1) =   0
                l(2) =   1
                l(3) =   3

     atomic species   valence    mass     pseudopotential
        Ga             3.00    69.72300     Ga( 1.00)
        As             5.00    74.92160     As( 1.00)

     24 Sym. Ops. (no inversion) found



   Cartesian axes

     site n.     atom                  positions (alat units)
         1           Ga  tau(   1) = (   0.0000000   0.0000000   0.0000000  )
         2           As  tau(   2) = (   0.3535534   0.3535534   0.3535534  )

     number of k points=    64
                       cart. coord. in units 2pi/alat
        k(    1) = (  -0.0007071   0.0007071   0.0007071), wk =   0.0312500
        k(    2) = (   0.1760696   0.1774838  -0.1760696), wk =   0.0312500
        k(    3) = (   0.3528463   0.3542605  -0.3528463), wk =   0.0312500
        k(    4) = (   0.5296230   0.5310372  -0.5296230), wk =   0.0312500
        k(    5) = (   0.1760696  -0.1760696   0.1774838), wk =   0.0312500
        k(    6) = (   0.3528463   0.0007071   0.0007071), wk =   0.0312500
        k(    7) = (   0.5296230   0.1774838  -0.1760696), wk =   0.0312500
        k(    8) = (   0.7063997   0.3542605  -0.3528463), wk =   0.0312500
        k(    9) = (   0.3528463  -0.3528463   0.3542605), wk =   0.0312500
        k(   10) = (   0.5296230  -0.1760696   0.1774838), wk =   0.0312500
        k(   11) = (   0.7063997   0.0007071   0.0007071), wk =   0.0312500
        k(   12) = (   0.8831764   0.1774838  -0.1760696), wk =   0.0312500
        k(   13) = (   0.5296230  -0.5296230   0.5310372), wk =   0.0312500
        k(   14) = (   0.7063997  -0.3528463   0.3542605), wk =   0.0312500
        k(   15) = (   0.8831764  -0.1760696   0.1774838), wk =   0.0312500
        k(   16) = (   1.0599531   0.0007071   0.0007071), wk =   0.0312500
        k(   17) = (  -0.1774838   0.1774838   0.1774838), wk =   0.0312500
        k(   18) = (  -0.0007071   0.3542605   0.0007071), wk =   0.0312500
        k(   19) = (   0.1760696   0.5310372  -0.1760696), wk =   0.0312500
        k(   20) = (   0.3528463   0.7078139  -0.3528463), wk =   0.0312500
        k(   21) = (  -0.0007071   0.0007071   0.3542605), wk =   0.0312500
        k(   22) = (   0.1760696   0.1774838   0.1774838), wk =   0.0312500
        k(   23) = (   0.3528463   0.3542605   0.0007071), wk =   0.0312500
        k(   24) = (   0.5296230   0.5310372  -0.1760696), wk =   0.0312500
        k(   25) = (   0.1760696  -0.1760696   0.5310372), wk =   0.0312500
        k(   26) = (   0.3528463   0.0007071   0.3542605), wk =   0.0312500
        k(   27) = (   0.5296230   0.1774838   0.1774838), wk =   0.0312500
        k(   28) = (   0.7063997   0.3542605   0.0007071), wk =   0.0312500
        k(   29) = (   0.3528463  -0.3528463   0.7078139), wk =   0.0312500
        k(   30) = (   0.5296230  -0.1760696   0.5310372), wk =   0.0312500
        k(   31) = (   0.7063997   0.0007071   0.3542605), wk =   0.0312500
        k(   32) = (   0.8831764   0.1774838   0.1774838), wk =   0.0312500
        k(   33) = (  -0.3542605   0.3542605   0.3542605), wk =   0.0312500
        k(   34) = (  -0.1774838   0.5310372   0.1774838), wk =   0.0312500
        k(   35) = (  -0.0007071   0.7078139   0.0007071), wk =   0.0312500
        k(   36) = (   0.1760696   0.8845906  -0.1760696), wk =   0.0312500
        k(   37) = (  -0.1774838   0.1774838   0.5310372), wk =   0.0312500
        k(   38) = (  -0.0007071   0.3542605   0.3542605), wk =   0.0312500
        k(   39) = (   0.1760696   0.5310372   0.1774838), wk =   0.0312500
        k(   40) = (   0.3528463   0.7078139   0.0007071), wk =   0.0312500
        k(   41) = (  -0.0007071   0.0007071   0.7078139), wk =   0.0312500
        k(   42) = (   0.1760696   0.1774838   0.5310372), wk =   0.0312500
        k(   43) = (   0.3528463   0.3542605   0.3542605), wk =   0.0312500
        k(   44) = (   0.5296230   0.5310372   0.1774838), wk =   0.0312500
        k(   45) = (   0.1760696  -0.1760696   0.8845906), wk =   0.0312500
        k(   46) = (   0.3528463   0.0007071   0.7078139), wk =   0.0312500
        k(   47) = (   0.5296230   0.1774838   0.5310372), wk =   0.0312500
        k(   48) = (   0.7063997   0.3542605   0.3542605), wk =   0.0312500
        k(   49) = (  -0.5310372   0.5310372   0.5310372), wk =   0.0312500
        k(   50) = (  -0.3542605   0.7078139   0.3542605), wk =   0.0312500
        k(   51) = (  -0.1774838   0.8845906   0.1774838), wk =   0.0312500
        k(   52) = (  -0.0007071   1.0613673   0.0007071), wk =   0.0312500
        k(   53) = (  -0.3542605   0.3542605   0.7078139), wk =   0.0312500
        k(   54) = (  -0.1774838   0.5310372   0.5310372), wk =   0.0312500
        k(   55) = (  -0.0007071   0.7078139   0.3542605), wk =   0.0312500
        k(   56) = (   0.1760696   0.8845906   0.1774838), wk =   0.0312500
        k(   57) = (  -0.1774838   0.1774838   0.8845906), wk =   0.0312500
        k(   58) = (  -0.0007071   0.3542605   0.7078139), wk =   0.0312500
        k(   59) = (   0.1760696   0.5310372   0.5310372), wk =   0.0312500
        k(   60) = (   0.3528463   0.7078139   0.3542605), wk =   0.0312500
        k(   61) = (  -0.0007071   0.0007071   1.0613673), wk =   0.0312500
        k(   62) = (   0.1760696   0.1774838   0.8845906), wk =   0.0312500
        k(   63) = (   0.3528463   0.3542605   0.7078139), wk =   0.0312500
        k(   64) = (   0.5296230   0.5310372   0.5310372), wk =   0.0312500

     Dense  grid:     1291 G-vectors     FFT dimensions: (  15,  15,  15)

     Largest allocated arrays     est. size (Mb)     dimensions
        Kohn-Sham Wavefunctions         0.01 Mb     (      89,   10)
        NL pseudopotentials             0.04 Mb     (      89,   26)
        Each V/rho on FFT grid          0.03 Mb     (    1800)
        Each G-vector array             0.00 Mb     (     646)
        G-vector shells                 0.00 Mb     (      40)
     Largest temporary arrays     est. size (Mb)     dimensions
        Auxiliary wavefunctions         0.05 Mb     (      89,   40)
        Each subspace H/S matrix        0.02 Mb     (      40,   40)
        Each <psi_i|beta_j> matrix      0.00 Mb     (      26,   10)

     The potential is recalculated from file :
     ./GaAs.save/charge-density.dat

     Starting wfc are   32 randomized atomic wfcs

     Band Structure Calculation
     Davidson diagonalization with overlap
     c_bands:  1 eigenvalues not converged

     ethr =  1.25E-12,  avg # of iterations = 37.1

     total cpu time spent up to now is        1.5 secs

     End of band structure calculation

          k =-0.0007 0.0007 0.0007 (   169 PWs)   bands (ev):

    -7.5284   5.5511   5.5516   5.5516   6.0668   9.0318   9.0318   9.0318
    12.8456  16.4316

          k = 0.1761 0.1775-0.1761 (   162 PWs)   bands (ev):

    -6.8236   1.2193   4.6899   4.6975   6.9646  10.0941  10.1041  11.5677
    14.3115  15.1388

          k = 0.3528 0.3543-0.3528 (   168 PWs)   bands (ev):

    -5.7994  -1.4781   4.1449   4.1450   6.4021  10.3248  10.3249  13.1822
    15.9763  17.4965

          k = 0.5296 0.5310-0.5296 (   162 PWs)   bands (ev):

    -6.8201   1.2077   4.6870   4.6948   6.9630  10.0967  10.1066  11.5787
    14.3094  15.1408

          k = 0.1761-0.1761 0.1775 (   162 PWs)   bands (ev):

    -6.8236   1.2193   4.6899   4.6975   6.9646  10.0941  10.1041  11.5677
    14.3115  15.1388

          k = 0.3528 0.0007 0.0007 (   165 PWs)   bands (ev):

    -6.6050   1.3573   3.5633   3.5633   7.4702   8.8078  12.2655  12.2656
    13.4524  16.7123

          k = 0.5296 0.1775-0.1761 (   164 PWs)   bands (ev):

    -5.4570  -1.0477   1.9751   3.1580   7.7490  10.2191  11.9906  12.7154
    16.2395  17.7710

          k = 0.7064 0.3543-0.3528 (   164 PWs)   bands (ev):

    -5.8833  -0.3829   1.8206   4.0483   8.2256  11.0399  11.1813  11.7591
    14.5691  16.0197

          k = 0.3528-0.3528 0.3543 (   168 PWs)   bands (ev):

    -5.7994  -1.4781   4.1449   4.1450   6.4021  10.3248  10.3249  13.1822
    15.9763  17.4965

          k = 0.5296-0.1761 0.1775 (   164 PWs)   bands (ev):

    -5.4570  -1.0477   1.9751   3.1580   7.7490  10.2191  11.9906  12.7154
    16.2395  17.7710

          k = 0.7064 0.0007 0.0007 (   150 PWs)   bands (ev):

    -4.8135  -1.5842   2.4803   2.4804   7.2301   7.3003  15.9793  15.9794
    16.6824  18.8942

          k = 0.8832 0.1775-0.1761 (   164 PWs)   bands (ev):

    -5.4509  -1.0533   1.9650   3.1541   7.7463  10.2210  12.0006  12.7276
    16.2328  17.7594

          k = 0.5296-0.5296 0.5310 (   162 PWs)   bands (ev):

    -6.8201   1.2077   4.6870   4.6948   6.9630  10.0967  10.1066  11.5787
    14.3094  15.1408

          k = 0.7064-0.3528 0.3543 (   164 PWs)   bands (ev):

    -5.8833  -0.3829   1.8206   4.0483   8.2256  11.0399  11.1813  11.7591
    14.5691  16.0197

          k = 0.8832-0.1761 0.1775 (   164 PWs)   bands (ev):

    -5.4509  -1.0533   1.9650   3.1541   7.7463  10.2210  12.0006  12.7276
    16.2328  17.7594

          k = 1.0600 0.0007 0.0007 (   165 PWs)   bands (ev):

    -6.5979   1.3404   3.5548   3.5548   7.4649   8.8039  12.2836  12.2837
    13.4600  16.7344

          k =-0.1775 0.1775 0.1775 (   162 PWs)   bands (ev):

    -6.8167   1.1962   4.6882   4.6882   6.9613  10.1041  10.1041  11.5897
    14.3072  15.1520

          k =-0.0007 0.3543 0.0007 (   165 PWs)   bands (ev):

    -6.5979   1.3404   3.5548   3.5548   7.4649   8.8039  12.2836  12.2837
    13.4600  16.7344

          k = 0.1761 0.5310-0.1761 (   164 PWs)   bands (ev):

    -5.4515  -1.0501   1.9654   3.1510   7.7441  10.2101  12.0027  12.7372
    16.2415  17.7680

          k = 0.3528 0.7078-0.3528 (   164 PWs)   bands (ev):

    -5.8782  -0.3905   1.8142   4.0432   8.2247  11.0428  11.1900  11.7680
    14.5742  16.0062

          k =-0.0007 0.0007 0.3543 (   165 PWs)   bands (ev):

    -6.5979   1.3404   3.5548   3.5548   7.4649   8.8039  12.2836  12.2837
    13.4600  16.7344

          k = 0.1761 0.1775 0.1775 (   162 PWs)   bands (ev):

    -6.8201   1.2077   4.6870   4.6948   6.9630  10.0967  10.1066  11.5787
    14.3094  15.1408

          k = 0.3528 0.3543 0.0007 (   164 PWs)   bands (ev):

    -5.8833  -0.3829   1.8206   4.0483   8.2256  11.0399  11.1813  11.7591
    14.5691  16.0197

          k = 0.5296 0.5310-0.1761 (   164 PWs)   bands (ev):

    -5.4509  -1.0533   1.9650   3.1541   7.7463  10.2210  12.0006  12.7276
    16.2328  17.7594

          k = 0.1761-0.1761 0.5310 (   164 PWs)   bands (ev):

    -5.4515  -1.0501   1.9654   3.1510   7.7441  10.2101  12.0027  12.7372
    16.2415  17.7680

          k = 0.3528 0.0007 0.3543 (   164 PWs)   bands (ev):

    -5.8833  -0.3829   1.8206   4.0483   8.2256  11.0399  11.1813  11.7591
    14.5691  16.0197

          k = 0.5296 0.1775 0.1775 (   164 PWs)   bands (ev):

    -5.4564  -1.0510   1.9748   3.1612   7.7510  10.2298  11.9892  12.7054
    16.2310  17.7623

          k = 0.7064 0.3543 0.0007 (   156 PWs)   bands (ev):

    -4.8485  -1.4256   1.6722   1.7737  10.0801  10.6677  11.1155  11.7045
    17.3862  18.0634

          k = 0.3528-0.3528 0.7078 (   164 PWs)   bands (ev):

    -5.8782  -0.3905   1.8142   4.0432   8.2247  11.0428  11.1900  11.7680
    14.5742  16.0062

          k = 0.5296-0.1761 0.5310 (   164 PWs)   bands (ev):

    -5.4509  -1.0533   1.9650   3.1541   7.7463  10.2210  12.0006  12.7276
    16.2328  17.7594

          k = 0.7064 0.0007 0.3543 (   156 PWs)   bands (ev):

    -4.8485  -1.4256   1.6722   1.7737  10.0801  10.6677  11.1155  11.7045
    17.3862  18.0634

          k = 0.8832 0.1775 0.1775 (   164 PWs)   bands (ev):

    -5.4504  -1.0565   1.9646   3.1574   7.7483  10.2318  11.9990  12.7175
    16.2242  17.7506

          k =-0.3543 0.3543 0.3543 (   168 PWs)   bands (ev):

    -5.7994  -1.4780   4.1450   4.1450   6.4020  10.3248  10.3248  13.1821
    15.9762  17.4965

          k =-0.1775 0.5310 0.1775 (   164 PWs)   bands (ev):

    -5.4504  -1.0565   1.9646   3.1574   7.7483  10.2318  11.9990  12.7175
    16.2242  17.7506

          k =-0.0007 0.7078 0.0007 (   150 PWs)   bands (ev):

    -4.8135  -1.5842   2.4803   2.4804   7.2301   7.3003  15.9793  15.9794
    16.6824  18.8942

          k = 0.1761 0.8846-0.1761 (   164 PWs)   bands (ev):

    -5.4576  -1.0445   1.9755   3.1549   7.7468  10.2083  11.9926  12.7250
    16.2482  17.7795

          k =-0.1775 0.1775 0.5310 (   164 PWs)   bands (ev):

    -5.4504  -1.0565   1.9646   3.1574   7.7483  10.2318  11.9990  12.7175
    16.2242  17.7506

          k =-0.0007 0.3543 0.3543 (   164 PWs)   bands (ev):

    -5.8782  -0.3905   1.8142   4.0432   8.2247  11.0428  11.1900  11.7680
    14.5742  16.0062

          k = 0.1761 0.5310 0.1775 (   164 PWs)   bands (ev):

    -5.4509  -1.0533   1.9650   3.1541   7.7463  10.2210  12.0006  12.7276
    16.2328  17.7594

          k = 0.3528 0.7078 0.0007 (   156 PWs)   bands (ev):

    -4.8485  -1.4256   1.6722   1.7737  10.0801  10.6677  11.1155  11.7045
    17.3862  18.0634

          k =-0.0007 0.0007 0.7078 (   150 PWs)   bands (ev):

    -4.8135  -1.5842   2.4803   2.4804   7.2301   7.3003  15.9793  15.9794
    16.6824  18.8942

          k = 0.1761 0.1775 0.5310 (   164 PWs)   bands (ev):

    -5.4509  -1.0533   1.9650   3.1541   7.7463  10.2210  12.0006  12.7276
    16.2328  17.7594

          k = 0.3528 0.3543 0.3543 (   168 PWs)   bands (ev):

    -5.7994  -1.4781   4.1449   4.1450   6.4021  10.3248  10.3249  13.1822
    15.9763  17.4965

          k = 0.5296 0.5310 0.1775 (   164 PWs)   bands (ev):

    -5.4570  -1.0477   1.9751   3.1580   7.7490  10.2191  11.9906  12.7154
    16.2395  17.7710

          k = 0.1761-0.1761 0.8846 (   164 PWs)   bands (ev):

    -5.4576  -1.0445   1.9755   3.1549   7.7468  10.2083  11.9926  12.7250
    16.2482  17.7795

          k = 0.3528 0.0007 0.7078 (   156 PWs)   bands (ev):

    -4.8485  -1.4256   1.6722   1.7737  10.0801  10.6677  11.1155  11.7045
    17.3862  18.0634

          k = 0.5296 0.1775 0.5310 (   164 PWs)   bands (ev):

    -5.4570  -1.0477   1.9751   3.1580   7.7490  10.2191  11.9906  12.7154
    16.2395  17.7710

          k = 0.7064 0.3543 0.3543 (   164 PWs)   bands (ev):

    -5.8884  -0.3753   1.8270   4.0535   8.2264  11.0372  11.1730  11.7496
    14.5639  16.0330

          k =-0.5310 0.5310 0.5310 (   162 PWs)   bands (ev):

    -6.8270   1.2308   4.6965   4.6965   6.9661  10.0966  10.0966  11.5567
    14.3136  15.1459

          k =-0.3543 0.7078 0.3543 (   164 PWs)   bands (ev):

    -5.8884  -0.3753   1.8270   4.0535   8.2264  11.0372  11.1730  11.7496
    14.5639  16.0330

          k =-0.1775 0.8846 0.1775 (   164 PWs)   bands (ev):

    -5.4564  -1.0510   1.9748   3.1612   7.7510  10.2298  11.9892  12.7054
    16.2310  17.7623

          k =-0.0007 1.0614 0.0007 (   165 PWs)   bands (ev):

    -6.6050   1.3573   3.5633   3.5633   7.4702   8.8078  12.2655  12.2656
    13.4524  16.7123

          k =-0.3543 0.3543 0.7078 (   164 PWs)   bands (ev):

    -5.8884  -0.3753   1.8270   4.0535   8.2264  11.0372  11.1730  11.7496
    14.5639  16.0330

          k =-0.1775 0.5310 0.5310 (   164 PWs)   bands (ev):

    -5.4576  -1.0445   1.9755   3.1549   7.7468  10.2083  11.9926  12.7250
    16.2482  17.7795

          k =-0.0007 0.7078 0.3543 (   156 PWs)   bands (ev):

    -4.8485  -1.4256   1.6722   1.7737  10.0801  10.6677  11.1155  11.7045
    17.3862  18.0634

          k = 0.1761 0.8846 0.1775 (   164 PWs)   bands (ev):

    -5.4570  -1.0477   1.9751   3.1580   7.7490  10.2191  11.9906  12.7154
    16.2395  17.7710

          k =-0.1775 0.1775 0.8846 (   164 PWs)   bands (ev):

    -5.4564  -1.0510   1.9748   3.1612   7.7510  10.2298  11.9892  12.7054
    16.2310  17.7623

          k =-0.0007 0.3543 0.7078 (   156 PWs)   bands (ev):

    -4.8485  -1.4256   1.6722   1.7737  10.0801  10.6677  11.1155  11.7045
    17.3862  18.0634

          k = 0.1761 0.5310 0.5310 (   164 PWs)   bands (ev):

    -5.4515  -1.0501   1.9654   3.1510   7.7441  10.2101  12.0027  12.7372
    16.2415  17.7680

          k = 0.3528 0.7078 0.3543 (   164 PWs)   bands (ev):

    -5.8833  -0.3829   1.8206   4.0483   8.2256  11.0399  11.1813  11.7591
    14.5691  16.0197

          k =-0.0007 0.0007 1.0614 (   165 PWs)   bands (ev):

    -6.6050   1.3573   3.5633   3.5633   7.4702   8.8078  12.2655  12.2656
    13.4524  16.7123

          k = 0.1761 0.1775 0.8846 (   164 PWs)   bands (ev):

    -5.4570  -1.0477   1.9751   3.1580   7.7490  10.2191  11.9906  12.7154
    16.2395  17.7710

          k = 0.3528 0.3543 0.7078 (   164 PWs)   bands (ev):

    -5.8833  -0.3829   1.8206   4.0483   8.2256  11.0399  11.1813  11.7591
    14.5691  16.0197

          k = 0.5296 0.5310 0.5310 (   162 PWs)   bands (ev):

    -6.8236   1.2193   4.6899   4.6975   6.9646  10.0941  10.1041  11.5677
    14.3115  15.1388

     Writing output data file GaAs.save

     init_run     :      0.02s CPU      0.03s WALL (       1 calls)
     electrons    :      1.34s CPU      1.39s WALL (       1 calls)

     Called by init_run:
     wfcinit      :      0.00s CPU      0.00s WALL (       1 calls)
     potinit      :      0.00s CPU      0.00s WALL (       1 calls)

     Called by electrons:
     c_bands      :      1.34s CPU      1.39s WALL (       1 calls)
     v_of_rho     :      0.00s CPU      0.00s WALL (       1 calls)

     Called by c_bands:
     init_us_2    :      0.00s CPU      0.00s WALL (      64 calls)
     cegterg      :      1.21s CPU      1.25s WALL (     146 calls)

     Called by *egterg:
     h_psi        :      0.50s CPU      0.54s WALL (    2582 calls)
     g_psi        :      0.01s CPU      0.01s WALL (    2372 calls)
     cdiaghg      :      0.60s CPU      0.60s WALL (    2436 calls)

     Called by h_psi:
     add_vuspsi   :      0.05s CPU      0.05s WALL (    2582 calls)

     General routines
     calbec       :      0.06s CPU      0.06s WALL (    2582 calls)
     fft          :      0.00s CPU      0.00s WALL (      10 calls)
     fftw         :      0.33s CPU      0.35s WALL (   27814 calls)
     davcio       :      0.00s CPU      0.01s WALL (      64 calls)

     Parallel routines
     fft_scatter  :      0.09s CPU      0.10s WALL (   27824 calls)

     PWSCF        :     1.50s CPU         1.61s WALL


   This run was terminated on:  11:30:56  12Nov2015            

=------------------------------------------------------------------------------=
   JOB DONE.
=------------------------------------------------------------------------------=
