
     Program PWSCF v.5.1.2 starts on  4Nov2016 at 14:20:18 

     This program is part of the open-source Quantum ESPRESSO suite
     for quantum simulation of materials; please cite
         "P. Giannozzi et al., J. Phys.:Condens. Matter 21 395502 (2009);
          URL http://www.quantum-espresso.org", 
     in publications or presentations arising from this work. More details at
     http://www.quantum-espresso.org/quote

     Parallel version (MPI), running on     2 processors
     R & G space division:  proc/nbgrp/npool/nimage =       2
     Reading input from wfn.in

     Current dimensions of program PWSCF are:
     Max number of different atomic species (ntypx) = 10
     Max number of k-points (npk) =  40000
     Max angular momentum in pseudopotentials (lmaxx) =  3

     Atomic positions and unit cell read from directory:
     ./GaAs.save/

               file 31-Ga.PBE.UPF: wavefunction(s)  4d 4f renormalized
               file 33-As.PBE.UPF: wavefunction(s)  4f renormalized

     Subspace diagonalization in iterative solution of the eigenvalue problem:
     a serial algorithm will be used


     Parallelization info
     --------------------
     sticks:   dense  smooth     PW     G-vecs:    dense   smooth      PW
     Min          81      81     30                  645      645     165
     Max          82      82     31                  646      646     166
     Sum         163     163     61                 1291     1291     331



     bravais-lattice index     =            0
     lattice parameter (alat)  =       7.5544  a.u.
     unit-cell volume          =     304.8518 (a.u.)^3
     number of atoms/cell      =            2
     number of atomic types    =            2
     number of electrons       =         8.00
     number of Kohn-Sham states=            9
     kinetic-energy cutoff     =      10.0000  Ry
     charge density cutoff     =      40.0000  Ry
     Exchange-correlation      = PBE ( 1  4  3  4 0 0)

     celldm(1)=   7.554422  celldm(2)=   0.000000  celldm(3)=   0.000000
     celldm(4)=   0.000000  celldm(5)=   0.000000  celldm(6)=   0.000000

     crystal axes: (cart. coord. in units of alat)
               a(1) = (   0.000000   0.707107   0.707107 )  
               a(2) = (   0.707107   0.000000   0.707107 )  
               a(3) = (   0.707107   0.707107   0.000000 )  

     reciprocal axes: (cart. coord. in units 2 pi/alat)
               b(1) = ( -0.707107  0.707107  0.707107 )  
               b(2) = (  0.707107 -0.707107  0.707107 )  
               b(3) = (  0.707107  0.707107 -0.707107 )  


     PseudoPot. # 1 for Ga read from file:
     ../../../../Data/Pseudos/31-Ga.PBE.UPF
     MD5 check sum: d2addd91d8bcf9a88adfbbdfd2637de8
     Pseudo is Norm-conserving, Zval =  3.0
     Generated using FHI98PP, converted with fhi2upf.x v.5.0.2
     Using radial grid of  529 points,  3 beta functions with: 
                l(1) =   1
                l(2) =   2
                l(3) =   3

     PseudoPot. # 2 for As read from file:
     ../../../../Data/Pseudos/33-As.PBE.UPF
     MD5 check sum: 9c0f5dd9d369d21dd57660ed5a27ee1c
     Pseudo is Norm-conserving, Zval =  5.0
     Generated using FHI98PP, converted with fhi2upf.x v.5.0.2
     Using radial grid of  531 points,  3 beta functions with: 
                l(1) =   0
                l(2) =   1
                l(3) =   3

     atomic species   valence    mass     pseudopotential
        Ga             3.00    69.72300     Ga( 1.00)
        As             5.00    74.92160     As( 1.00)

     24 Sym. Ops. (no inversion) found



   Cartesian axes

     site n.     atom                  positions (alat units)
         1           Ga  tau(   1) = (   0.0000000   0.0000000   0.0000000  )
         2           As  tau(   2) = (   0.3535534   0.3535534   0.3535534  )

     number of k points=    64
                       cart. coord. in units 2pi/alat
        k(    1) = (   0.0000000   0.0000000   0.0000000), wk =   0.0312500
        k(    2) = (   0.1767767   0.1767767  -0.1767767), wk =   0.0312500
        k(    3) = (   0.3535534   0.3535534  -0.3535534), wk =   0.0312500
        k(    4) = (   0.5303301   0.5303301  -0.5303301), wk =   0.0312500
        k(    5) = (   0.1767767  -0.1767767   0.1767767), wk =   0.0312500
        k(    6) = (   0.3535534   0.0000000   0.0000000), wk =   0.0312500
        k(    7) = (   0.5303301   0.1767767  -0.1767767), wk =   0.0312500
        k(    8) = (   0.7071068   0.3535534  -0.3535534), wk =   0.0312500
        k(    9) = (   0.3535534  -0.3535534   0.3535534), wk =   0.0312500
        k(   10) = (   0.5303301  -0.1767767   0.1767767), wk =   0.0312500
        k(   11) = (   0.7071068   0.0000000   0.0000000), wk =   0.0312500
        k(   12) = (   0.8838835   0.1767767  -0.1767767), wk =   0.0312500
        k(   13) = (   0.5303301  -0.5303301   0.5303301), wk =   0.0312500
        k(   14) = (   0.7071068  -0.3535534   0.3535534), wk =   0.0312500
        k(   15) = (   0.8838835  -0.1767767   0.1767767), wk =   0.0312500
        k(   16) = (   1.0606602   0.0000000   0.0000000), wk =   0.0312500
        k(   17) = (  -0.1767767   0.1767767   0.1767767), wk =   0.0312500
        k(   18) = (   0.0000000   0.3535534   0.0000000), wk =   0.0312500
        k(   19) = (   0.1767767   0.5303301  -0.1767767), wk =   0.0312500
        k(   20) = (   0.3535534   0.7071068  -0.3535534), wk =   0.0312500
        k(   21) = (   0.0000000   0.0000000   0.3535534), wk =   0.0312500
        k(   22) = (   0.1767767   0.1767767   0.1767767), wk =   0.0312500
        k(   23) = (   0.3535534   0.3535534   0.0000000), wk =   0.0312500
        k(   24) = (   0.5303301   0.5303301  -0.1767767), wk =   0.0312500
        k(   25) = (   0.1767767  -0.1767767   0.5303301), wk =   0.0312500
        k(   26) = (   0.3535534   0.0000000   0.3535534), wk =   0.0312500
        k(   27) = (   0.5303301   0.1767767   0.1767767), wk =   0.0312500
        k(   28) = (   0.7071068   0.3535534   0.0000000), wk =   0.0312500
        k(   29) = (   0.3535534  -0.3535534   0.7071068), wk =   0.0312500
        k(   30) = (   0.5303301  -0.1767767   0.5303301), wk =   0.0312500
        k(   31) = (   0.7071068  -0.0000000   0.3535534), wk =   0.0312500
        k(   32) = (   0.8838835   0.1767767   0.1767767), wk =   0.0312500
        k(   33) = (  -0.3535534   0.3535534   0.3535534), wk =   0.0312500
        k(   34) = (  -0.1767767   0.5303301   0.1767767), wk =   0.0312500
        k(   35) = (   0.0000000   0.7071068   0.0000000), wk =   0.0312500
        k(   36) = (   0.1767767   0.8838835  -0.1767767), wk =   0.0312500
        k(   37) = (  -0.1767767   0.1767767   0.5303301), wk =   0.0312500
        k(   38) = (   0.0000000   0.3535534   0.3535534), wk =   0.0312500
        k(   39) = (   0.1767767   0.5303301   0.1767767), wk =   0.0312500
        k(   40) = (   0.3535534   0.7071068   0.0000000), wk =   0.0312500
        k(   41) = (   0.0000000   0.0000000   0.7071068), wk =   0.0312500
        k(   42) = (   0.1767767   0.1767767   0.5303301), wk =   0.0312500
        k(   43) = (   0.3535534   0.3535534   0.3535534), wk =   0.0312500
        k(   44) = (   0.5303301   0.5303301   0.1767767), wk =   0.0312500
        k(   45) = (   0.1767767  -0.1767767   0.8838835), wk =   0.0312500
        k(   46) = (   0.3535534  -0.0000000   0.7071068), wk =   0.0312500
        k(   47) = (   0.5303301   0.1767767   0.5303301), wk =   0.0312500
        k(   48) = (   0.7071068   0.3535534   0.3535534), wk =   0.0312500
        k(   49) = (  -0.5303301   0.5303301   0.5303301), wk =   0.0312500
        k(   50) = (  -0.3535534   0.7071068   0.3535534), wk =   0.0312500
        k(   51) = (  -0.1767767   0.8838835   0.1767767), wk =   0.0312500
        k(   52) = (   0.0000000   1.0606602   0.0000000), wk =   0.0312500
        k(   53) = (  -0.3535534   0.3535534   0.7071068), wk =   0.0312500
        k(   54) = (  -0.1767767   0.5303301   0.5303301), wk =   0.0312500
        k(   55) = (  -0.0000000   0.7071068   0.3535534), wk =   0.0312500
        k(   56) = (   0.1767767   0.8838835   0.1767767), wk =   0.0312500
        k(   57) = (  -0.1767767   0.1767767   0.8838835), wk =   0.0312500
        k(   58) = (  -0.0000000   0.3535534   0.7071068), wk =   0.0312500
        k(   59) = (   0.1767767   0.5303301   0.5303301), wk =   0.0312500
        k(   60) = (   0.3535534   0.7071068   0.3535534), wk =   0.0312500
        k(   61) = (   0.0000000   0.0000000   1.0606602), wk =   0.0312500
        k(   62) = (   0.1767767   0.1767767   0.8838835), wk =   0.0312500
        k(   63) = (   0.3535534   0.3535534   0.7071068), wk =   0.0312500
        k(   64) = (   0.5303301   0.5303301   0.5303301), wk =   0.0312500

     Dense  grid:     1291 G-vectors     FFT dimensions: (  15,  15,  15)

     Largest allocated arrays     est. size (Mb)     dimensions
        Kohn-Sham Wavefunctions         0.01 Mb     (      89,    9)
        NL pseudopotentials             0.04 Mb     (      89,   26)
        Each V/rho on FFT grid          0.03 Mb     (    1800)
        Each G-vector array             0.00 Mb     (     646)
        G-vector shells                 0.00 Mb     (      40)
     Largest temporary arrays     est. size (Mb)     dimensions
        Auxiliary wavefunctions         0.05 Mb     (      89,   36)
        Each subspace H/S matrix        0.02 Mb     (      36,   36)
        Each <psi_i|beta_j> matrix      0.00 Mb     (      26,    9)

     The potential is recalculated from file :
     ./GaAs.save/charge-density.dat

     Starting wfc are   32 randomized atomic wfcs

     Band Structure Calculation
     Davidson diagonalization with overlap

     ethr =  1.25E-12,  avg # of iterations = 33.2

     total cpu time spent up to now is        1.2 secs

     End of band structure calculation

          k = 0.0000 0.0000 0.0000 (   169 PWs)   bands (ev):

    -7.5284   5.5516   5.5516   5.5516   6.0663   9.0318   9.0318   9.0318
    12.8456

          k = 0.1768 0.1768-0.1768 (   162 PWs)   bands (ev):

    -6.8219   1.2135   4.6924   4.6924   6.9637  10.1004  10.1004  11.5732
    14.3104

          k = 0.3536 0.3536-0.3536 (   168 PWs)   bands (ev):

    -5.7994  -1.4781   4.1450   4.1450   6.4020  10.3248  10.3248  13.1821
    15.9764

          k = 0.5303 0.5303-0.5303 (   162 PWs)   bands (ev):

    -6.8219   1.2135   4.6924   4.6924   6.9637  10.1004  10.1004  11.5732
    14.3104

          k = 0.1768-0.1768 0.1768 (   162 PWs)   bands (ev):

    -6.8219   1.2135   4.6924   4.6924   6.9637  10.1004  10.1004  11.5732
    14.3104

          k = 0.3536 0.0000 0.0000 (   165 PWs)   bands (ev):

    -6.6015   1.3489   3.5591   3.5591   7.4675   8.8059  12.2747  12.2747
    13.4561

          k = 0.5303 0.1768-0.1768 (   164 PWs)   bands (ev):

    -5.4539  -1.0505   1.9701   3.1561   7.7476  10.2201  11.9957  12.7213
    16.2363

          k = 0.7071 0.3536-0.3536 (   164 PWs)   bands (ev):

    -5.8833  -0.3829   1.8205   4.0484   8.2256  11.0401  11.1815  11.7587
    14.5690

          k = 0.3536-0.3536 0.3536 (   168 PWs)   bands (ev):

    -5.7994  -1.4781   4.1450   4.1450   6.4020  10.3248  10.3248  13.1821
    15.9764

          k = 0.5303-0.1768 0.1768 (   164 PWs)   bands (ev):

    -5.4539  -1.0505   1.9701   3.1561   7.7476  10.2201  11.9957  12.7213
    16.2363

          k = 0.7071 0.0000 0.0000 (   150 PWs)   bands (ev):

    -4.8135  -1.5842   2.4804   2.4804   7.2301   7.3002  15.9795  15.9795
    16.6823

          k = 0.8839 0.1768-0.1768 (   164 PWs)   bands (ev):

    -5.4539  -1.0505   1.9701   3.1561   7.7476  10.2201  11.9957  12.7213
    16.2363

          k = 0.5303-0.5303 0.5303 (   162 PWs)   bands (ev):

    -6.8219   1.2135   4.6924   4.6924   6.9637  10.1004  10.1004  11.5732
    14.3104

          k = 0.7071-0.3536 0.3536 (   164 PWs)   bands (ev):

    -5.8833  -0.3829   1.8205   4.0484   8.2256  11.0401  11.1815  11.7587
    14.5690

          k = 0.8839-0.1768 0.1768 (   164 PWs)   bands (ev):

    -5.4539  -1.0505   1.9701   3.1561   7.7476  10.2201  11.9957  12.7213
    16.2363

          k = 1.0607 0.0000 0.0000 (   165 PWs)   bands (ev):

    -6.6015   1.3489   3.5591   3.5591   7.4675   8.8059  12.2747  12.2747
    13.4561

          k =-0.1768 0.1768 0.1768 (   162 PWs)   bands (ev):

    -6.8219   1.2135   4.6924   4.6924   6.9637  10.1004  10.1004  11.5732
    14.3104

          k = 0.0000 0.3536 0.0000 (   165 PWs)   bands (ev):

    -6.6015   1.3489   3.5591   3.5591   7.4675   8.8059  12.2747  12.2747
    13.4561

          k = 0.1768 0.5303-0.1768 (   164 PWs)   bands (ev):

    -5.4539  -1.0505   1.9701   3.1561   7.7476  10.2201  11.9957  12.7213
    16.2363

          k = 0.3536 0.7071-0.3536 (   164 PWs)   bands (ev):

    -5.8833  -0.3829   1.8205   4.0484   8.2256  11.0401  11.1815  11.7587
    14.5690

          k = 0.0000 0.0000 0.3536 (   165 PWs)   bands (ev):

    -6.6015   1.3489   3.5591   3.5591   7.4675   8.8059  12.2747  12.2747
    13.4561

          k = 0.1768 0.1768 0.1768 (   162 PWs)   bands (ev):

    -6.8219   1.2135   4.6924   4.6924   6.9637  10.1004  10.1004  11.5732
    14.3104

          k = 0.3536 0.3536 0.0000 (   164 PWs)   bands (ev):

    -5.8833  -0.3829   1.8205   4.0484   8.2256  11.0401  11.1815  11.7587
    14.5690

          k = 0.5303 0.5303-0.1768 (   164 PWs)   bands (ev):

    -5.4539  -1.0505   1.9701   3.1561   7.7476  10.2201  11.9957  12.7213
    16.2363

          k = 0.1768-0.1768 0.5303 (   164 PWs)   bands (ev):

    -5.4539  -1.0505   1.9701   3.1561   7.7476  10.2201  11.9957  12.7213
    16.2363

          k = 0.3536 0.0000 0.3536 (   164 PWs)   bands (ev):

    -5.8833  -0.3829   1.8205   4.0484   8.2256  11.0401  11.1815  11.7587
    14.5690

          k = 0.5303 0.1768 0.1768 (   164 PWs)   bands (ev):

    -5.4539  -1.0505   1.9701   3.1561   7.7476  10.2201  11.9957  12.7213
    16.2363

          k = 0.7071 0.3536 0.0000 (   156 PWs)   bands (ev):

    -4.8485  -1.4257   1.6724   1.7735  10.0802  10.6679  11.1153  11.7043
    17.3866

          k = 0.3536-0.3536 0.7071 (   164 PWs)   bands (ev):

    -5.8833  -0.3829   1.8205   4.0484   8.2256  11.0401  11.1815  11.7587
    14.5690

          k = 0.5303-0.1768 0.5303 (   164 PWs)   bands (ev):

    -5.4539  -1.0505   1.9701   3.1561   7.7476  10.2201  11.9957  12.7213
    16.2363

          k = 0.7071-0.0000 0.3536 (   156 PWs)   bands (ev):

    -4.8485  -1.4257   1.6724   1.7735  10.0802  10.6679  11.1153  11.7043
    17.3866

          k = 0.8839 0.1768 0.1768 (   164 PWs)   bands (ev):

    -5.4539  -1.0505   1.9701   3.1561   7.7476  10.2201  11.9957  12.7213
    16.2363

          k =-0.3536 0.3536 0.3536 (   168 PWs)   bands (ev):

    -5.7994  -1.4781   4.1450   4.1450   6.4020  10.3248  10.3248  13.1821
    15.9764

          k =-0.1768 0.5303 0.1768 (   164 PWs)   bands (ev):

    -5.4539  -1.0505   1.9701   3.1561   7.7476  10.2201  11.9957  12.7213
    16.2363

          k = 0.0000 0.7071 0.0000 (   150 PWs)   bands (ev):

    -4.8135  -1.5842   2.4804   2.4804   7.2301   7.3002  15.9795  15.9795
    16.6823

          k = 0.1768 0.8839-0.1768 (   164 PWs)   bands (ev):

    -5.4539  -1.0505   1.9701   3.1561   7.7476  10.2201  11.9957  12.7213
    16.2363

          k =-0.1768 0.1768 0.5303 (   164 PWs)   bands (ev):

    -5.4539  -1.0505   1.9701   3.1561   7.7476  10.2201  11.9957  12.7213
    16.2363

          k = 0.0000 0.3536 0.3536 (   164 PWs)   bands (ev):

    -5.8833  -0.3829   1.8205   4.0484   8.2256  11.0401  11.1815  11.7587
    14.5690

          k = 0.1768 0.5303 0.1768 (   164 PWs)   bands (ev):

    -5.4539  -1.0505   1.9701   3.1561   7.7476  10.2201  11.9957  12.7213
    16.2363

          k = 0.3536 0.7071 0.0000 (   156 PWs)   bands (ev):

    -4.8485  -1.4257   1.6724   1.7735  10.0802  10.6679  11.1153  11.7043
    17.3866

          k = 0.0000 0.0000 0.7071 (   150 PWs)   bands (ev):

    -4.8135  -1.5842   2.4804   2.4804   7.2301   7.3002  15.9795  15.9795
    16.6823

          k = 0.1768 0.1768 0.5303 (   164 PWs)   bands (ev):

    -5.4539  -1.0505   1.9701   3.1561   7.7476  10.2201  11.9957  12.7213
    16.2363

          k = 0.3536 0.3536 0.3536 (   168 PWs)   bands (ev):

    -5.7994  -1.4781   4.1450   4.1450   6.4020  10.3248  10.3248  13.1821
    15.9764

          k = 0.5303 0.5303 0.1768 (   164 PWs)   bands (ev):

    -5.4539  -1.0505   1.9701   3.1561   7.7476  10.2201  11.9957  12.7213
    16.2363

          k = 0.1768-0.1768 0.8839 (   164 PWs)   bands (ev):

    -5.4539  -1.0505   1.9701   3.1561   7.7476  10.2201  11.9957  12.7213
    16.2363

          k = 0.3536-0.0000 0.7071 (   156 PWs)   bands (ev):

    -4.8485  -1.4257   1.6724   1.7735  10.0802  10.6679  11.1153  11.7043
    17.3866

          k = 0.5303 0.1768 0.5303 (   164 PWs)   bands (ev):

    -5.4539  -1.0505   1.9701   3.1561   7.7476  10.2201  11.9957  12.7213
    16.2363

          k = 0.7071 0.3536 0.3536 (   164 PWs)   bands (ev):

    -5.8833  -0.3829   1.8205   4.0484   8.2256  11.0401  11.1815  11.7587
    14.5690

          k =-0.5303 0.5303 0.5303 (   162 PWs)   bands (ev):

    -6.8219   1.2135   4.6924   4.6924   6.9637  10.1004  10.1004  11.5732
    14.3104

          k =-0.3536 0.7071 0.3536 (   164 PWs)   bands (ev):

    -5.8833  -0.3829   1.8205   4.0484   8.2256  11.0401  11.1815  11.7587
    14.5690

          k =-0.1768 0.8839 0.1768 (   164 PWs)   bands (ev):

    -5.4539  -1.0505   1.9701   3.1561   7.7476  10.2201  11.9957  12.7213
    16.2363

          k = 0.0000 1.0607 0.0000 (   165 PWs)   bands (ev):

    -6.6015   1.3489   3.5591   3.5591   7.4675   8.8059  12.2747  12.2747
    13.4561

          k =-0.3536 0.3536 0.7071 (   164 PWs)   bands (ev):

    -5.8833  -0.3829   1.8205   4.0484   8.2256  11.0401  11.1815  11.7587
    14.5690

          k =-0.1768 0.5303 0.5303 (   164 PWs)   bands (ev):

    -5.4539  -1.0505   1.9701   3.1561   7.7476  10.2201  11.9957  12.7213
    16.2363

          k =-0.0000 0.7071 0.3536 (   156 PWs)   bands (ev):

    -4.8485  -1.4257   1.6724   1.7735  10.0802  10.6679  11.1153  11.7043
    17.3866

          k = 0.1768 0.8839 0.1768 (   164 PWs)   bands (ev):

    -5.4539  -1.0505   1.9701   3.1561   7.7476  10.2201  11.9957  12.7213
    16.2363

          k =-0.1768 0.1768 0.8839 (   164 PWs)   bands (ev):

    -5.4539  -1.0505   1.9701   3.1561   7.7476  10.2201  11.9957  12.7213
    16.2363

          k =-0.0000 0.3536 0.7071 (   156 PWs)   bands (ev):

    -4.8485  -1.4257   1.6724   1.7735  10.0802  10.6679  11.1153  11.7043
    17.3866

          k = 0.1768 0.5303 0.5303 (   164 PWs)   bands (ev):

    -5.4539  -1.0505   1.9701   3.1561   7.7476  10.2201  11.9957  12.7213
    16.2363

          k = 0.3536 0.7071 0.3536 (   164 PWs)   bands (ev):

    -5.8833  -0.3829   1.8205   4.0484   8.2256  11.0401  11.1815  11.7587
    14.5690

          k = 0.0000 0.0000 1.0607 (   165 PWs)   bands (ev):

    -6.6015   1.3489   3.5591   3.5591   7.4675   8.8059  12.2747  12.2747
    13.4561

          k = 0.1768 0.1768 0.8839 (   164 PWs)   bands (ev):

    -5.4539  -1.0505   1.9701   3.1561   7.7476  10.2201  11.9957  12.7213
    16.2363

          k = 0.3536 0.3536 0.7071 (   164 PWs)   bands (ev):

    -5.8833  -0.3829   1.8205   4.0484   8.2256  11.0401  11.1815  11.7587
    14.5690

          k = 0.5303 0.5303 0.5303 (   162 PWs)   bands (ev):

    -6.8219   1.2135   4.6924   4.6924   6.9637  10.1004  10.1004  11.5732
    14.3104

     Writing output data file GaAs.save

     init_run     :      0.02s CPU      0.03s WALL (       1 calls)
     electrons    :      1.08s CPU      1.14s WALL (       1 calls)

     Called by init_run:
     wfcinit      :      0.00s CPU      0.00s WALL (       1 calls)
     potinit      :      0.00s CPU      0.00s WALL (       1 calls)

     Called by electrons:
     c_bands      :      1.08s CPU      1.14s WALL (       1 calls)
     v_of_rho     :      0.00s CPU      0.00s WALL (       1 calls)

     Called by c_bands:
     init_us_2    :      0.00s CPU      0.00s WALL (      64 calls)
     cegterg      :      0.95s CPU      1.00s WALL (     129 calls)

     Called by *egterg:
     h_psi        :      0.47s CPU      0.50s WALL (    2320 calls)
     g_psi        :      0.01s CPU      0.01s WALL (    2127 calls)
     cdiaghg      :      0.41s CPU      0.42s WALL (    2191 calls)

     Called by h_psi:
     add_vuspsi   :      0.05s CPU      0.05s WALL (    2320 calls)

     General routines
     calbec       :      0.05s CPU      0.05s WALL (    2320 calls)
     fft          :      0.00s CPU      0.00s WALL (      10 calls)
     fftw         :      0.31s CPU      0.34s WALL (   24588 calls)
     davcio       :      0.00s CPU      0.01s WALL (      64 calls)

     Parallel routines
     fft_scatter  :      0.09s CPU      0.10s WALL (   24598 calls)

     PWSCF        :     1.25s CPU         1.33s WALL


   This run was terminated on:  14:20:19   4Nov2016            

=------------------------------------------------------------------------------=
   JOB DONE.
=------------------------------------------------------------------------------=
