
     Program PWSCF v.5.1.2 starts on  4Nov2016 at 14:19:52 

     This program is part of the open-source Quantum ESPRESSO suite
     for quantum simulation of materials; please cite
         "P. Giannozzi et al., J. Phys.:Condens. Matter 21 395502 (2009);
          URL http://www.quantum-espresso.org", 
     in publications or presentations arising from this work. More details at
     http://www.quantum-espresso.org/quote

     Parallel version (MPI), running on     1 processors
     Reading input from scf.in

     Current dimensions of program PWSCF are:
     Max number of different atomic species (ntypx) = 10
     Max number of k-points (npk) =  40000
     Max angular momentum in pseudopotentials (lmaxx) =  3
               file 31-Ga.PBE.UPF: wavefunction(s)  4d 4f renormalized
               file 33-As.PBE.UPF: wavefunction(s)  4f renormalized

     Subspace diagonalization in iterative solution of the eigenvalue problem:
     a serial algorithm will be used


     G-vector sticks info
     --------------------
     sticks:   dense  smooth     PW     G-vecs:    dense   smooth      PW
     Sum         163     163     61                 1291     1291     331



     bravais-lattice index     =            0
     lattice parameter (alat)  =       7.5544  a.u.
     unit-cell volume          =     304.8518 (a.u.)^3
     number of atoms/cell      =            2
     number of atomic types    =            2
     number of electrons       =         8.00
     number of Kohn-Sham states=            4
     kinetic-energy cutoff     =      10.0000  Ry
     charge density cutoff     =      40.0000  Ry
     convergence threshold     =      1.0E-10
     mixing beta               =       0.7000
     number of iterations used =            8  plain     mixing
     Exchange-correlation      = PBE ( 1  4  3  4 0 0)

     celldm(1)=   7.554422  celldm(2)=   0.000000  celldm(3)=   0.000000
     celldm(4)=   0.000000  celldm(5)=   0.000000  celldm(6)=   0.000000

     crystal axes: (cart. coord. in units of alat)
               a(1) = (   0.000000   0.707107   0.707107 )  
               a(2) = (   0.707107   0.000000   0.707107 )  
               a(3) = (   0.707107   0.707107   0.000000 )  

     reciprocal axes: (cart. coord. in units 2 pi/alat)
               b(1) = ( -0.707107  0.707107  0.707107 )  
               b(2) = (  0.707107 -0.707107  0.707107 )  
               b(3) = (  0.707107  0.707107 -0.707107 )  


     PseudoPot. # 1 for Ga read from file:
     ../../../Data/Pseudos/31-Ga.PBE.UPF
     MD5 check sum: d2addd91d8bcf9a88adfbbdfd2637de8
     Pseudo is Norm-conserving, Zval =  3.0
     Generated using FHI98PP, converted with fhi2upf.x v.5.0.2
     Using radial grid of  529 points,  3 beta functions with: 
                l(1) =   1
                l(2) =   2
                l(3) =   3

     PseudoPot. # 2 for As read from file:
     ../../../Data/Pseudos/33-As.PBE.UPF
     MD5 check sum: 9c0f5dd9d369d21dd57660ed5a27ee1c
     Pseudo is Norm-conserving, Zval =  5.0
     Generated using FHI98PP, converted with fhi2upf.x v.5.0.2
     Using radial grid of  531 points,  3 beta functions with: 
                l(1) =   0
                l(2) =   1
                l(3) =   3

     atomic species   valence    mass     pseudopotential
        Ga             3.00    69.72300     Ga( 1.00)
        As             5.00    74.92160     As( 1.00)

     24 Sym. Ops. (no inversion) found



   Cartesian axes

     site n.     atom                  positions (alat units)
         1           Ga  tau(   1) = (   0.0000000   0.0000000   0.0000000  )
         2           As  tau(   2) = (   0.3535534   0.3535534   0.3535534  )

     number of k points=     4
                       cart. coord. in units 2pi/alat
        k(    1) = (   0.1767767   0.1767767   0.1767767), wk =   0.2500000
        k(    2) = (   0.5303301   0.5303301  -0.1767767), wk =   0.7500000
        k(    3) = (   0.8838835   0.1767767   0.1767767), wk =   0.7500000
        k(    4) = (   0.5303301   0.5303301   0.5303301), wk =   0.2500000

     Dense  grid:     1291 G-vectors     FFT dimensions: (  15,  15,  15)

     Largest allocated arrays     est. size (Mb)     dimensions
        Kohn-Sham Wavefunctions         0.01 Mb     (     164,    4)
        NL pseudopotentials             0.07 Mb     (     164,   26)
        Each V/rho on FFT grid          0.05 Mb     (    3375)
        Each G-vector array             0.01 Mb     (    1291)
        G-vector shells                 0.00 Mb     (      40)
     Largest temporary arrays     est. size (Mb)     dimensions
        Auxiliary wavefunctions         0.04 Mb     (     164,   16)
        Each subspace H/S matrix        0.00 Mb     (      16,   16)
        Each <psi_i|beta_j> matrix      0.00 Mb     (      26,    4)
        Arrays for rho mixing           0.41 Mb     (    3375,    8)

     Initial potential from superposition of free atoms

     starting charge    7.99757, renormalised to    8.00000
     Starting wfc are   32 randomized atomic wfcs

     total cpu time spent up to now is        0.1 secs

     Self-consistent Calculation

     iteration #  1     ecut=    10.00 Ry     beta=0.70
     Davidson diagonalization with overlap
     ethr =  1.00E-02,  avg # of iterations =  2.0

     Threshold (ethr) on eigenvalues was too large:
     Diagonalizing with lowered threshold

     Davidson diagonalization with overlap
     ethr =  3.34E-04,  avg # of iterations =  2.0

     total cpu time spent up to now is        0.1 secs

     total energy              =     -16.93706989 Ry
     Harris-Foulkes estimate   =     -16.93824226 Ry
     estimated scf accuracy    <       0.02889752 Ry

     iteration #  2     ecut=    10.00 Ry     beta=0.70
     Davidson diagonalization with overlap
     ethr =  3.61E-04,  avg # of iterations =  1.0

     total cpu time spent up to now is        0.1 secs

     total energy              =     -16.93876631 Ry
     Harris-Foulkes estimate   =     -16.93834321 Ry
     estimated scf accuracy    <       0.00215504 Ry

     iteration #  3     ecut=    10.00 Ry     beta=0.70
     Davidson diagonalization with overlap
     ethr =  2.69E-05,  avg # of iterations =  3.0

     total cpu time spent up to now is        0.1 secs

     total energy              =     -16.93917915 Ry
     Harris-Foulkes estimate   =     -16.93932136 Ry
     estimated scf accuracy    <       0.00027693 Ry

     iteration #  4     ecut=    10.00 Ry     beta=0.70
     Davidson diagonalization with overlap
     ethr =  3.46E-06,  avg # of iterations =  3.5

     total cpu time spent up to now is        0.1 secs

     total energy              =     -16.93911280 Ry
     Harris-Foulkes estimate   =     -16.93949809 Ry
     estimated scf accuracy    <       0.00073604 Ry

     iteration #  5     ecut=    10.00 Ry     beta=0.70
     Davidson diagonalization with overlap
     ethr =  3.46E-06,  avg # of iterations =  3.0

     total cpu time spent up to now is        0.1 secs

     total energy              =     -16.93923096 Ry
     Harris-Foulkes estimate   =     -16.93923066 Ry
     estimated scf accuracy    <       0.00000104 Ry

     iteration #  6     ecut=    10.00 Ry     beta=0.70
     Davidson diagonalization with overlap
     ethr =  1.30E-08,  avg # of iterations =  4.5

     total cpu time spent up to now is        0.1 secs

     total energy              =     -16.93923418 Ry
     Harris-Foulkes estimate   =     -16.93923449 Ry
     estimated scf accuracy    <       0.00000068 Ry

     iteration #  7     ecut=    10.00 Ry     beta=0.70
     Davidson diagonalization with overlap
     ethr =  8.44E-09,  avg # of iterations =  3.0

     total cpu time spent up to now is        0.2 secs

     total energy              =     -16.93923428 Ry
     Harris-Foulkes estimate   =     -16.93923454 Ry
     estimated scf accuracy    <       0.00000060 Ry

     iteration #  8     ecut=    10.00 Ry     beta=0.70
     Davidson diagonalization with overlap
     ethr =  7.47E-09,  avg # of iterations =  1.2

     total cpu time spent up to now is        0.2 secs

     total energy              =     -16.93923429 Ry
     Harris-Foulkes estimate   =     -16.93923433 Ry
     estimated scf accuracy    <       0.00000007 Ry

     iteration #  9     ecut=    10.00 Ry     beta=0.70
     Davidson diagonalization with overlap
     ethr =  8.80E-10,  avg # of iterations =  3.5

     total cpu time spent up to now is        0.2 secs

     total energy              =     -16.93923434 Ry
     Harris-Foulkes estimate   =     -16.93923434 Ry
     estimated scf accuracy    <       0.00000001 Ry

     iteration # 10     ecut=    10.00 Ry     beta=0.70
     Davidson diagonalization with overlap
     ethr =  1.80E-10,  avg # of iterations =  1.0

     total cpu time spent up to now is        0.2 secs

     total energy              =     -16.93923434 Ry
     Harris-Foulkes estimate   =     -16.93923434 Ry
     estimated scf accuracy    <       0.00000002 Ry

     iteration # 11     ecut=    10.00 Ry     beta=0.70
     Davidson diagonalization with overlap
     ethr =  1.80E-10,  avg # of iterations =  1.0

     total cpu time spent up to now is        0.2 secs

     total energy              =     -16.93923434 Ry
     Harris-Foulkes estimate   =     -16.93923434 Ry
     estimated scf accuracy    <          4.0E-09 Ry

     iteration # 12     ecut=    10.00 Ry     beta=0.70
     Davidson diagonalization with overlap
     ethr =  4.98E-11,  avg # of iterations =  1.0

     total cpu time spent up to now is        0.2 secs

     total energy              =     -16.93923434 Ry
     Harris-Foulkes estimate   =     -16.93923434 Ry
     estimated scf accuracy    <          2.3E-09 Ry

     iteration # 13     ecut=    10.00 Ry     beta=0.70
     Davidson diagonalization with overlap
     ethr =  2.87E-11,  avg # of iterations =  3.0

     total cpu time spent up to now is        0.2 secs

     End of self-consistent calculation

          k = 0.1768 0.1768 0.1768 (   162 PWs)   bands (ev):

    -6.8219   1.2135   4.6924   4.6924

          k = 0.5303 0.5303-0.1768 (   164 PWs)   bands (ev):

    -5.4539  -1.0505   1.9701   3.1561

          k = 0.8839 0.1768 0.1768 (   164 PWs)   bands (ev):

    -5.4539  -1.0505   1.9701   3.1561

          k = 0.5303 0.5303 0.5303 (   162 PWs)   bands (ev):

    -6.8219   1.2135   4.6924   4.6924

     highest occupied level (ev):     4.6924

!    total energy              =     -16.93923434 Ry
     Harris-Foulkes estimate   =     -16.93923434 Ry
     estimated scf accuracy    <          3.8E-11 Ry

     The total energy is the sum of the following terms:

     one-electron contribution =       3.16191387 Ry
     hartree contribution      =       1.51546527 Ry
     xc contribution           =      -4.77360638 Ry
     ewald contribution        =     -16.84300710 Ry

     convergence has been achieved in  13 iterations

     Writing output data file GaAs.save

     init_run     :      0.06s CPU      0.06s WALL (       1 calls)
     electrons    :      0.09s CPU      0.10s WALL (       1 calls)

     Called by init_run:
     wfcinit      :      0.01s CPU      0.01s WALL (       1 calls)
     potinit      :      0.00s CPU      0.00s WALL (       1 calls)

     Called by electrons:
     c_bands      :      0.06s CPU      0.06s WALL (      14 calls)
     sum_band     :      0.01s CPU      0.01s WALL (      14 calls)
     v_of_rho     :      0.02s CPU      0.02s WALL (      14 calls)
     mix_rho      :      0.00s CPU      0.00s WALL (      14 calls)

     Called by c_bands:
     init_us_2    :      0.01s CPU      0.01s WALL (     116 calls)
     cegterg      :      0.05s CPU      0.05s WALL (      56 calls)

     Called by *egterg:
     h_psi        :      0.05s CPU      0.05s WALL (     191 calls)
     g_psi        :      0.00s CPU      0.00s WALL (     131 calls)
     cdiaghg      :      0.01s CPU      0.01s WALL (     183 calls)

     Called by h_psi:
     add_vuspsi   :      0.01s CPU      0.01s WALL (     191 calls)

     General routines
     calbec       :      0.01s CPU      0.01s WALL (     191 calls)
     fft          :      0.00s CPU      0.00s WALL (     155 calls)
     fftw         :      0.03s CPU      0.03s WALL (    1854 calls)
     davcio       :      0.00s CPU      0.00s WALL (       4 calls)

     Parallel routines
     fft_scatter  :      0.00s CPU      0.00s WALL (    2009 calls)

     PWSCF        :     0.21s CPU         0.22s WALL


   This run was terminated on:  14:19:52   4Nov2016            

=------------------------------------------------------------------------------=
   JOB DONE.
=------------------------------------------------------------------------------=
