
.Version 8.0.0 of ABINIT 
.(MPI version, prepared for a x86_64_darwin15.0.0_gnu5.2 computer) 

.Copyright (C) 1998-2015 ABINIT group . 
 ABINIT comes with ABSOLUTELY NO WARRANTY.
 It is free software, and you are welcome to redistribute it
 under certain conditions (GNU General Public License,
 see ~abinit/COPYING or http://www.gnu.org/copyleft/gpl.txt).

 ABINIT is a project of the Universite Catholique de Louvain,
 Corning Inc. and other collaborators, see ~abinit/doc/developers/contributors.txt .
 Please read ~abinit/doc/users/acknowledgments.html for suggested
 acknowledgments of the ABINIT effort.
 For more information, see http://www.abinit.org .

.Starting date : Mon  4 Jan 2016.
- ( at 13h21 )
  
- input  file    -> GaAs.in
- output file    -> GaAs.out
- root for input  files -> input_data/idat
- root for output files -> out_data/odat


 Symmetries : space group F-4 3 m (#216); Bravais cF (face-center cubic)
================================================================================
 Values of the parameters that define the memory need of the present run
   intxc =         0  ionmov =         0    iscf =         7 xclevel =         1
  lmnmax =         1   lnmax =         1   mband =         5  mffmem =         1
P  mgfft =        16   mkmem =        10 mpssoang=         2     mpw =       164
  mqgrid =      3001   natom =         2    nfft =      4096    nkpt =        10
  nloalg =         4  nspden =         1 nspinor =         1  nsppol =         1
    nsym =        24  n1xccc =      2501  ntypat =         2  occopt =         1
================================================================================
P This job should need less than                       2.044 Mbytes of memory.
  Rough estimation (10% accuracy) of disk space for files :
_ WF disk file :      0.127 Mbytes ; DEN or POT disk file :      0.033 Mbytes.
================================================================================

--------------------------------------------------------------------------------
------------- Echo of variables that govern the present computation ------------
--------------------------------------------------------------------------------
-
- outvars: echo of selected default values                                      
-   accesswff0 =  0 , fftalg0 =112 , wfoptalg0 =  0
-
- outvars: echo of global parameters not present in the input file              
-  max_nthreads =    0
-
 -outvars: echo values of preprocessed input variables --------
            acell      1.0000000000E+00  1.0000000000E+00  1.0000000000E+00 Bohr
              amu      6.97230000E+01  7.49215900E+01
             ecut      5.00000000E+00 Hartree
-          fftalg         112
              kpt      1.00000000E-03  5.00000000E-01  2.50000000E-01
                       2.51000000E-01  0.00000000E+00  0.00000000E+00
                       2.51000000E-01  2.50000000E-01  2.50000000E-01
                       2.51000000E-01  2.50000000E-01  7.50000000E-01
                       2.51000000E-01  5.00000000E-01  0.00000000E+00
                       2.51000000E-01  7.50000000E-01  7.50000000E-01
                       5.01000000E-01  0.00000000E+00  7.50000000E-01
                       7.51000000E-01  0.00000000E+00  0.00000000E+00
                       7.51000000E-01  0.00000000E+00  5.00000000E-01
                       7.51000000E-01  7.50000000E-01  7.50000000E-01
           kptopt           0
P           mkmem          10
            natom           2
            nband           5
            ngfft          16      16      16
             nkpt          10
             nsym          24
           ntypat           2
              occ      2.000000  2.000000  2.000000  2.000000  0.000000
           prtvxc           1
            rprim      0.0000000000E+00  5.3417833491E+00  5.3417833491E+00
                       5.3417833491E+00  0.0000000000E+00  5.3417833491E+00
                       5.3417833491E+00  5.3417833491E+00  0.0000000000E+00
          spgroup         216
           symrel      1  0  0   0  1  0   0  0  1       1  0 -1   0  1 -1   0  0 -1
                       0  1 -1   0  0 -1   1  0 -1      -1  1  0  -1  0  0  -1  0  1
                       0 -1  0   0 -1  1   1 -1  0      -1  0  0  -1  0  1  -1  1  0
                       0  1  0   1  0  0   0  0  1       0  1 -1   1  0 -1   0  0 -1
                      -1  0  0  -1  1  0  -1  0  1       0  0 -1   0  1 -1   1  0 -1
                       0 -1  1   0 -1  0   1 -1  0      -1  0  1  -1  0  0  -1  1  0
                       0  1  0   0  0  1   1  0  0      -1  1  0  -1  0  1  -1  0  0
                       1  0 -1   0  0 -1   0  1 -1       1 -1  0   0 -1  0   0 -1  1
                       0  0  1   0  1  0   1  0  0      -1  0  1  -1  1  0  -1  0  0
                       0 -1  0   1 -1  0   0 -1  1       0  0 -1   1  0 -1   0  1 -1
                       1  0  0   0  0  1   0  1  0       1 -1  0   0 -1  1   0 -1  0
                       0 -1  1   1 -1  0   0 -1  0       0  0  1   1  0  0   0  1  0
           tolvrs      1.00000000E-10
            typat      1  2
              wtk        0.18750    0.03125    0.09375    0.18750    0.09375    0.09375
                         0.09375    0.03125    0.09375    0.09375
           xangst      0.0000000000E+00  0.0000000000E+00  0.0000000000E+00
                       1.4133750008E+00  1.4133750008E+00  1.4133750008E+00
            xcart      0.0000000000E+00  0.0000000000E+00  0.0000000000E+00
                       2.6708916745E+00  2.6708916745E+00  2.6708916745E+00
             xred      0.0000000000E+00  0.0000000000E+00  0.0000000000E+00
                       2.5000000000E-01  2.5000000000E-01  2.5000000000E-01
            znucl       31.00000   33.00000

================================================================================

 chkinp: Checking input parameters for consistency.

================================================================================
== DATASET  1 ==================================================================
-   nproc =    1

 Exchange-correlation functional for the present dataset will be:
  LDA: new Teter (4/93) with spin-polarized option - ixc=1
 Citation for XC functional:
  S. Goedecker, M. Teter, J. Huetter, PRB 54, 1703 (1996)

 Real(R)+Recip(G) space primitive vectors, cartesian coordinates (Bohr,Bohr^-1):
 R(1)=  0.0000000  5.3417833  5.3417833  G(1)= -0.0936017  0.0936017  0.0936017
 R(2)=  5.3417833  0.0000000  5.3417833  G(2)=  0.0936017 -0.0936017  0.0936017
 R(3)=  5.3417833  5.3417833  0.0000000  G(3)=  0.0936017  0.0936017 -0.0936017
 Unit cell volume ucvol=  3.0485183E+02 bohr^3
 Angles (23,13,12)=  6.00000000E+01  6.00000000E+01  6.00000000E+01 degrees

 getcut: wavevector=  0.0000  0.0000  0.0000  ngfft=  16  16  16
         ecut(hartree)=      5.000   => boxcut(ratio)=   2.10411

--- Pseudopotential description ------------------------------------------------
- pspini: atom type   1  psp file is ../../../../Data/Pseudos/31-Ga.pspnc
- pspatm: opening atomic psp file    ../../../../Data/Pseudos/31-Ga.pspnc
-  Troullier-Martins psp for element  Ga        Thu Oct 27 17:36:43 EDT 1994
- 31.00000   3.00000    940714                znucl, zion, pspdat
    1    1    1    0      2001   0.00000      pspcod,pspxc,lmax,lloc,mmax,r2well
    0   6.570  15.885    0   1.9956558        l,e99.0,e99.9,nproj,rcpsp
   0.00000000   0.00000000   0.00000000   0.00000000     rms, ekb1, ekb2, epsatm
    1   2.122   7.249    1   1.9956558        l,e99.0,e99.9,nproj,rcpsp
   0.00000000   0.00000000   0.00000000   0.00000000     rms, ekb1, ekb2, epsatm
    2.57649862033350    0.14924926558032    2.22766011456380   rchrg,fchrg,qchrg
 pspatm: epsatm=   27.06235248
         --- l  ekb(1:nproj) -->
             1    2.537532
 pspatm: atomic psp has been read  and splines computed

- pspini: atom type   2  psp file is ../../../../Data/Pseudos/33-As.pspnc
- pspatm: opening atomic psp file    ../../../../Data/Pseudos/33-As.pspnc
-  Troullier-Martins psp for element  As        Thu Oct 27 17:37:14 EDT 1994
- 33.00000   5.00000    940714                znucl, zion, pspdat
    1    1    1    1      2001   0.00000      pspcod,pspxc,lmax,lloc,mmax,r2well
    0   4.772  10.829    1   2.5306160        l,e99.0,e99.9,nproj,rcpsp
   0.00000000   0.00000000   0.00000000   0.00000000     rms, ekb1, ekb2, epsatm
    1   2.745   5.580    0   2.5306160        l,e99.0,e99.9,nproj,rcpsp
   0.00000000   0.00000000   0.00000000   0.00000000     rms, ekb1, ekb2, epsatm
    2.05731715564010    0.36322996461007    2.76014815959125   rchrg,fchrg,qchrg
 pspatm: epsatm=   27.20579911
         --- l  ekb(1:nproj) -->
             0    0.838751
 pspatm: atomic psp has been read  and splines computed

   4.34145213E+02                                ecore*ucvol(ha*bohr**3)
--------------------------------------------------------------------------------

P newkpt: treating      5 bands with npw=     164 for ikpt=   1 by node    0
P newkpt: treating      5 bands with npw=     162 for ikpt=   2 by node    0
P newkpt: treating      5 bands with npw=     162 for ikpt=   3 by node    0
P newkpt: treating      5 bands with npw=     164 for ikpt=   4 by node    0
P newkpt: treating      5 bands with npw=     164 for ikpt=   5 by node    0
P newkpt: treating      5 bands with npw=     164 for ikpt=   6 by node    0
P newkpt: treating      5 bands with npw=     164 for ikpt=   7 by node    0
P newkpt: treating      5 bands with npw=     162 for ikpt=   8 by node    0
P newkpt: treating      5 bands with npw=     164 for ikpt=   9 by node    0
P newkpt: treating      5 bands with npw=     162 for ikpt=  10 by node    0

_setup2: Arith. and geom. avg. npw (full set) are     163.500     163.498

================================================================================

     iter   Etot(hartree)      deltaE(h)  residm     vres2
 ETOT  1  -10.712490136991    -1.071E+01 2.115E-02 3.542E+00
 ETOT  2  -10.719954233430    -7.464E-03 4.172E-06 1.162E-01
 ETOT  3  -10.720187345576    -2.331E-04 9.034E-06 1.026E-02
 ETOT  4  -10.720202177726    -1.483E-05 3.299E-07 3.171E-04
 ETOT  5  -10.720202390776    -2.131E-07 6.461E-09 2.407E-06
 ETOT  6  -10.720202393242    -2.466E-09 8.121E-11 2.994E-08
 ETOT  7  -10.720202393259    -1.613E-11 3.178E-13 1.783E-09
 ETOT  8  -10.720202393260    -1.259E-12 5.307E-14 7.730E-12

 At SCF step    8       vres2   =  7.73E-12 < tolvrs=  1.00E-10 =>converged.

 Cartesian components of stress tensor (hartree/bohr^3)
  sigma(1 1)=  3.55766341E-04  sigma(3 2)=  0.00000000E+00
  sigma(2 2)=  3.55766341E-04  sigma(3 1)=  0.00000000E+00
  sigma(3 3)=  3.55766341E-04  sigma(2 1)=  0.00000000E+00

================================================================================

 ----iterations are completed or convergence reached----

 Mean square residual over all n,k,spin=   1.1745E-14; max=  5.3068E-14
   0.0010  0.5000  0.2500    1  5.17630E-14 kpt; spin; max resid(k); each band:
  3.76E-15 5.18E-15 2.06E-14 5.30E-16 5.18E-14
   0.2510  0.0000  0.0000    1  8.68838E-15 kpt; spin; max resid(k); each band:
  8.40E-15 6.28E-15 2.93E-16 2.96E-16 8.69E-15
   0.2510  0.2500  0.2500    1  8.72056E-15 kpt; spin; max resid(k); each band:
  8.42E-15 6.28E-15 2.85E-16 2.79E-16 8.72E-15
   0.2510  0.2500  0.7500    1  5.16932E-14 kpt; spin; max resid(k); each band:
  3.73E-15 5.16E-15 2.07E-14 4.31E-16 5.17E-14
   0.2510  0.5000  0.0000    1  5.30681E-14 kpt; spin; max resid(k); each band:
  3.74E-15 5.15E-15 2.07E-14 4.88E-16 5.31E-14
   0.2510  0.7500  0.7500    1  5.12887E-14 kpt; spin; max resid(k); each band:
  3.72E-15 5.16E-15 2.07E-14 4.30E-16 5.13E-14
   0.5010  0.0000  0.7500    1  5.22472E-14 kpt; spin; max resid(k); each band:
  3.77E-15 5.17E-15 2.06E-14 5.60E-16 5.22E-14
   0.7510  0.0000  0.0000    1  8.78685E-15 kpt; spin; max resid(k); each band:
  8.46E-15 6.24E-15 2.71E-16 5.33E-17 8.79E-15
   0.7510  0.0000  0.5000    1  5.11355E-14 kpt; spin; max resid(k); each band:
  3.75E-15 5.18E-15 2.06E-14 5.37E-16 5.11E-14
   0.7510  0.7500  0.7500    1  8.75328E-15 kpt; spin; max resid(k); each band:
  8.44E-15 6.29E-15 2.93E-16 2.82E-16 8.75E-15
 reduced coordinates (array xred) for    2 atoms
       0.000000000000      0.000000000000      0.000000000000
       0.250000000000      0.250000000000      0.250000000000
 rms dE/dt=  1.0735E-30; max dE/dt=  0.0000E+00; dE/dt below (all hartree)
    1       0.000000000000      0.000000000000      0.000000000000
    2       0.000000000000      0.000000000000     -0.000000000000

 cartesian coordinates (angstrom) at end:
    1      0.00000000000000     0.00000000000000     0.00000000000000
    2      1.41337500077459     1.41337500077459     1.41337500077459

 cartesian forces (hartree/bohr) at end:
    1     -0.00000000000000    -0.00000000000000     0.00000000000000
    2      0.00000000000000     0.00000000000000    -0.00000000000000
 frms,max,avg= 1.2306454E-31 1.2306454E-31   0.000E+00  0.000E+00  0.000E+00 h/b

 cartesian forces (eV/Angstrom) at end:
    1     -0.00000000000000    -0.00000000000000     0.00000000000000
    2      0.00000000000000     0.00000000000000    -0.00000000000000
 frms,max,avg= 6.3282323E-30 6.3282323E-30   0.000E+00  0.000E+00  0.000E+00 e/A
 length scales=  1.000000000000  1.000000000000  1.000000000000 bohr
              =  0.529177208590  0.529177208590  0.529177208590 angstroms
 prteigrs : about to open file out_data/odat_EIG
 Fermi (or HOMO) energy (hartree) =  -0.03342   Average Vxc (hartree)=  -0.35050
 Eigenvalues (hartree) for nkpt=  10  k points:
 kpt#   1, nband=  5, wtk=  0.18750, kpt=  0.0010  0.5000  0.2500 (reduced coord)
  -0.39904  -0.23284  -0.12322  -0.07822   0.06212
 kpt#   2, nband=  5, wtk=  0.03125, kpt=  0.2510  0.0000  0.0000 (reduced coord)
  -0.44455  -0.15894  -0.03367  -0.03367   0.04372
 kpt#   3, nband=  5, wtk=  0.09375, kpt=  0.2510  0.2500  0.2500 (reduced coord)
  -0.44466  -0.15856  -0.03372  -0.03349   0.04381
 kpt#   4, nband=  5, wtk=  0.18750, kpt=  0.2510  0.2500  0.7500 (reduced coord)
  -0.39885  -0.23302  -0.12355  -0.07833   0.06198
 kpt#   5, nband=  5, wtk=  0.09375, kpt=  0.2510  0.5000  0.0000 (reduced coord)
  -0.39886  -0.23293  -0.12352  -0.07843   0.06187
 kpt#   6, nband=  5, wtk=  0.09375, kpt=  0.2510  0.7500  0.7500 (reduced coord)
  -0.39883  -0.23311  -0.12358  -0.07823   0.06207
 kpt#   7, nband=  5, wtk=  0.09375, kpt=  0.5010  0.0000  0.7500 (reduced coord)
  -0.39905  -0.23275  -0.12319  -0.07831   0.06202
 kpt#   8, nband=  5, wtk=  0.03125, kpt=  0.7510  0.0000  0.0000 (reduced coord)
  -0.44489  -0.15780  -0.03346  -0.03346   0.04397
 kpt#   9, nband=  5, wtk=  0.09375, kpt=  0.7510  0.0000  0.5000 (reduced coord)
  -0.39902  -0.23293  -0.12325  -0.07812   0.06222
 kpt#  10, nband=  5, wtk=  0.09375, kpt=  0.7510  0.7500  0.7500 (reduced coord)
  -0.44477  -0.15818  -0.03365  -0.03342   0.04389
 Total charge density [el/Bohr^3]
,     Maximum=    9.0980E-02  at reduced coord.    0.1875    0.1875    0.5000
,Next maximum=    9.0980E-02  at reduced coord.    0.1250    0.1875    0.5000
,     Minimum=    2.1951E-03  at reduced coord.    0.7500    0.7500    0.7500
,Next minimum=    2.4323E-03  at reduced coord.    0.7500    0.7500    0.6875
,  Integrated=    8.0000E+00

--------------------------------------------------------------------------------
 Components of total free energy (in Hartree) :

    Kinetic energy  =  2.96030427180477E+00
    Hartree energy  =  8.08212386607468E-01
    XC energy       = -4.87103681190839E+00
    Ewald energy    = -8.42150354395726E+00
    PspCore energy  =  1.42411877076921E+00
    Loc. psp. energy= -2.76083792029649E+00
    NL   psp  energy=  1.40540453720857E-01
    >>>>>>>>> Etotal= -1.07202023932598E+01

 Other information on the energy :
    Total energy(eV)= -2.91711542379884E+02 ; Band energy (Ha)=  -1.5854003876E+00
--------------------------------------------------------------------------------

 Cartesian components of stress tensor (hartree/bohr^3)
  sigma(1 1)=  3.55766341E-04  sigma(3 2)=  0.00000000E+00
  sigma(2 2)=  3.55766341E-04  sigma(3 1)=  0.00000000E+00
  sigma(3 3)=  3.55766341E-04  sigma(2 1)=  0.00000000E+00

-Cartesian components of stress tensor (GPa)         [Pressure= -1.0467E+01 GPa]
- sigma(1 1)=  1.04670054E+01  sigma(3 2)=  0.00000000E+00
- sigma(2 2)=  1.04670054E+01  sigma(3 1)=  0.00000000E+00
- sigma(3 3)=  1.04670054E+01  sigma(2 1)=  0.00000000E+00

== END DATASET(S) ==============================================================
================================================================================
  
 -outvars: echo values of variables after computation  --------
            acell      1.0000000000E+00  1.0000000000E+00  1.0000000000E+00 Bohr
              amu      6.97230000E+01  7.49215900E+01
             ecut      5.00000000E+00 Hartree
           etotal     -1.0720202393E+01
            fcart     -1.2306453570E-31 -1.2306453570E-31  1.2306453570E-31
                       1.2306453570E-31  1.2306453570E-31 -1.2306453570E-31
-          fftalg         112
              kpt      1.00000000E-03  5.00000000E-01  2.50000000E-01
                       2.51000000E-01  0.00000000E+00  0.00000000E+00
                       2.51000000E-01  2.50000000E-01  2.50000000E-01
                       2.51000000E-01  2.50000000E-01  7.50000000E-01
                       2.51000000E-01  5.00000000E-01  0.00000000E+00
                       2.51000000E-01  7.50000000E-01  7.50000000E-01
                       5.01000000E-01  0.00000000E+00  7.50000000E-01
                       7.51000000E-01  0.00000000E+00  0.00000000E+00
                       7.51000000E-01  0.00000000E+00  5.00000000E-01
                       7.51000000E-01  7.50000000E-01  7.50000000E-01
           kptopt           0
P           mkmem          10
            natom           2
            nband           5
            ngfft          16      16      16
             nkpt          10
             nsym          24
           ntypat           2
              occ      2.000000  2.000000  2.000000  2.000000  0.000000
           prtvxc           1
            rprim      0.0000000000E+00  5.3417833491E+00  5.3417833491E+00
                       5.3417833491E+00  0.0000000000E+00  5.3417833491E+00
                       5.3417833491E+00  5.3417833491E+00  0.0000000000E+00
          spgroup         216
           strten      3.5576634094E-04  3.5576634094E-04  3.5576634094E-04
                       0.0000000000E+00  0.0000000000E+00  0.0000000000E+00
           symrel      1  0  0   0  1  0   0  0  1       1  0 -1   0  1 -1   0  0 -1
                       0  1 -1   0  0 -1   1  0 -1      -1  1  0  -1  0  0  -1  0  1
                       0 -1  0   0 -1  1   1 -1  0      -1  0  0  -1  0  1  -1  1  0
                       0  1  0   1  0  0   0  0  1       0  1 -1   1  0 -1   0  0 -1
                      -1  0  0  -1  1  0  -1  0  1       0  0 -1   0  1 -1   1  0 -1
                       0 -1  1   0 -1  0   1 -1  0      -1  0  1  -1  0  0  -1  1  0
                       0  1  0   0  0  1   1  0  0      -1  1  0  -1  0  1  -1  0  0
                       1  0 -1   0  0 -1   0  1 -1       1 -1  0   0 -1  0   0 -1  1
                       0  0  1   0  1  0   1  0  0      -1  0  1  -1  1  0  -1  0  0
                       0 -1  0   1 -1  0   0 -1  1       0  0 -1   1  0 -1   0  1 -1
                       1  0  0   0  0  1   0  1  0       1 -1  0   0 -1  1   0 -1  0
                       0 -1  1   1 -1  0   0 -1  0       0  0  1   1  0  0   0  1  0
           tolvrs      1.00000000E-10
            typat      1  2
              wtk        0.18750    0.03125    0.09375    0.18750    0.09375    0.09375
                         0.09375    0.03125    0.09375    0.09375
           xangst      0.0000000000E+00  0.0000000000E+00  0.0000000000E+00
                       1.4133750008E+00  1.4133750008E+00  1.4133750008E+00
            xcart      0.0000000000E+00  0.0000000000E+00  0.0000000000E+00
                       2.6708916745E+00  2.6708916745E+00  2.6708916745E+00
             xred      0.0000000000E+00  0.0000000000E+00  0.0000000000E+00
                       2.5000000000E-01  2.5000000000E-01  2.5000000000E-01
            znucl       31.00000   33.00000

================================================================================


- Timing analysis has been suppressed with timopt=0



================================================================================

 Suggested references for the acknowledgment of ABINIT usage.

 The users of ABINIT have little formal obligations with respect to the ABINIT group
 (those specified in the GNU General Public License, http://www.gnu.org/copyleft/gpl.txt).
 However, it is common practice in the scientific literature,
 to acknowledge the efforts of people that have made the research possible.
 In this spirit, please find below suggested citations of work written by ABINIT developers,
 corresponding to implementations inside of ABINIT that you have used in the present run.
 Note also that it will be of great value to readers of publications presenting these results,
 to read papers enabling them to understand the theoretical formalism and details
 of the ABINIT implementation.
 For information on why they are suggested, see also http://www.abinit.org/about/?text=acknowledgments.
-
- [1] ABINIT : First-principles approach of materials and nanosystem properties.
- X. Gonze, B. Amadon, P.-M. Anglade, J.-M. Beuken, F. Bottin, P. Boulanger, F. Bruneval,
- D. Caliste, R. Caracas, M. Cote, T. Deutsch, L. Genovese, Ph. Ghosez, M. Giantomassi
- S. Goedecker, D.R. Hamann, P. Hermet, F. Jollet, G. Jomard, S. Leroux, M. Mancini, S. Mazevet,
- M.J.T. Oliveira, G. Onida, Y. Pouillon, T. Rangel, G.-M. Rignanese, D. Sangalli, R. Shaltaf,
- M. Torrent, M.J. Verstraete, G. Zerah, J.W. Zwanziger
- Computer Phys. Comm. 180, 2582-2615 (2009).
- Comment : the third generic paper describing the ABINIT project.
- Note that a version of this paper, that is not formatted for Computer Phys. Comm. 
- is available at http://www.abinit.org/about/ABINIT_CPC_v10.pdf .
- The licence allows the authors to put it on the Web.
-
- [2] A brief introduction to the ABINIT software package.
- X. Gonze, G.-M. Rignanese, M. Verstraete, J.-M. Beuken, Y. Pouillon, R. Caracas, F. Jollet,
- M. Torrent, G. Zerah, M. Mikami, Ph. Ghosez, M. Veithen, J.-Y. Raty, V. Olevano, F. Bruneval,
- L. Reining, R. Godby, G. Onida, D.R. Hamann, and D.C. Allan.
- Z. Kristallogr. 220, 558-562 (2005).
- Comment : the second generic paper describing the ABINIT project. Note that this paper
- should be cited especially if you are using the GW part of ABINIT, as several authors
- of this part are not in the list of authors of the first or third paper.
- The .pdf of the latter paper is available at http://www.abinit.org/about/zfk_0505-06_558-562.pdf.
- Note that it should not redistributed (Copyright by Oldenburg Wissenshaftverlag,
- the licence allows the authors to put it on the Web).
-
- And optionally:
-
- [3] First-principles computation of material properties : the ABINIT software project. 
- X. Gonze, J.-M. Beuken, R. Caracas, F. Detraux, M. Fuchs, G.-M. Rignanese, L. Sindic,
- M. Verstraete, G. Zerah, F. Jollet, M. Torrent, A. Roy, M. Mikami, Ph. Ghosez, J.-Y. Raty, D.C. Allan.
- Computational Materials Science 25, 478-492 (2002). http://dx.doi.org/10.1016/S0927-0256(02)00325-7
- Comment : the original paper describing the ABINIT project.
-
- [4] Fast radix 2, 3, 4 and 5 kernels for Fast Fourier Transformations
- on computers with overlapping multiply-add instructions.
- S. Goedecker, SIAM J. on Scientific Computing 18, 1605 (1997).
-
- Proc.   0 individual time (sec): cpu=          0.6  wall=          0.6

================================================================================

 Calculation completed.
.Delivered   0 WARNINGs and   0 COMMENTs to log file.
+Overall time at end (sec) : cpu=          0.6  wall=          0.6
