
.Version 8.0.0 of ABINIT 
.(MPI version, prepared for a x86_64_darwin15.6.0_gnu6.1 computer) 

.Copyright (C) 1998-2015 ABINIT group . 
 ABINIT comes with ABSOLUTELY NO WARRANTY.
 It is free software, and you are welcome to redistribute it
 under certain conditions (GNU General Public License,
 see ~abinit/COPYING or http://www.gnu.org/copyleft/gpl.txt).

 ABINIT is a project of the Universite Catholique de Louvain,
 Corning Inc. and other collaborators, see ~abinit/doc/developers/contributors.txt .
 Please read ~abinit/doc/users/acknowledgments.html for suggested
 acknowledgments of the ABINIT effort.
 For more information, see http://www.abinit.org .

.Starting date : Fri  4 Nov 2016.
- ( at 14h20 )
  
- input  file    -> GaAs.in
- output file    -> GaAs.out
- root for input  files -> input_data/idat
- root for output files -> out_data/odat


 Symmetries : space group F-4 3 m (#216); Bravais cF (face-center cubic)
================================================================================
 Values of the parameters that define the memory need of the present run
   intxc =         0  ionmov =         0    iscf =        -3 xclevel =         1
  lmnmax =         1   lnmax =         1   mband =         5  mffmem =         1
P  mgfft =        16   mkmem =        32 mpssoang=         2     mpw =       169
  mqgrid =      3001   natom =         2    nfft =      4096    nkpt =        64
  nloalg =         4  nspden =         1 nspinor =         1  nsppol =         1
    nsym =        24  n1xccc =      2501  ntypat =         2  occopt =         1
================================================================================
P This job should need less than                       1.917 Mbytes of memory.
  Rough estimation (10% accuracy) of disk space for files :
_ WF disk file :      0.827 Mbytes ; DEN or POT disk file :      0.033 Mbytes.
================================================================================

--------------------------------------------------------------------------------
------------- Echo of variables that govern the present computation ------------
--------------------------------------------------------------------------------
-
- outvars: echo of selected default values                                      
-   accesswff0 =  0 , fftalg0 =112 , wfoptalg0 =  0
-
- outvars: echo of global parameters not present in the input file              
-  max_nthreads =    0
-
 -outvars: echo values of preprocessed input variables --------
            acell      1.0000000000E+00  1.0000000000E+00  1.0000000000E+00 Bohr
              amu      6.97230000E+01  7.49215900E+01
             ecut      5.00000000E+00 Hartree
-          fftalg         112
           irdden           1
             iscf          -3
              kpt      1.00000000E-03  0.00000000E+00  0.00000000E+00
                       1.00000000E-03  0.00000000E+00  2.50000000E-01
                       1.00000000E-03  0.00000000E+00  5.00000000E-01
                       1.00000000E-03  0.00000000E+00  7.50000000E-01
                       1.00000000E-03  2.50000000E-01  0.00000000E+00
                       1.00000000E-03  2.50000000E-01  2.50000000E-01
                       1.00000000E-03  2.50000000E-01  5.00000000E-01
                       1.00000000E-03  2.50000000E-01  7.50000000E-01
                       1.00000000E-03  5.00000000E-01  0.00000000E+00
                       1.00000000E-03  5.00000000E-01  2.50000000E-01
                       1.00000000E-03  5.00000000E-01  5.00000000E-01
                       1.00000000E-03  5.00000000E-01  7.50000000E-01
                       1.00000000E-03  7.50000000E-01  0.00000000E+00
                       1.00000000E-03  7.50000000E-01  2.50000000E-01
                       1.00000000E-03  7.50000000E-01  5.00000000E-01
                       1.00000000E-03  7.50000000E-01  7.50000000E-01
                       2.51000000E-01  0.00000000E+00  0.00000000E+00
                       2.51000000E-01  0.00000000E+00  2.50000000E-01
                       2.51000000E-01  0.00000000E+00  5.00000000E-01
                       2.51000000E-01  0.00000000E+00  7.50000000E-01
                       2.51000000E-01  2.50000000E-01  0.00000000E+00
                       2.51000000E-01  2.50000000E-01  2.50000000E-01
                       2.51000000E-01  2.50000000E-01  5.00000000E-01
                       2.51000000E-01  2.50000000E-01  7.50000000E-01
                       2.51000000E-01  5.00000000E-01  0.00000000E+00
                       2.51000000E-01  5.00000000E-01  2.50000000E-01
                       2.51000000E-01  5.00000000E-01  5.00000000E-01
                       2.51000000E-01  5.00000000E-01  7.50000000E-01
                       2.51000000E-01  7.50000000E-01  0.00000000E+00
                       2.51000000E-01  7.50000000E-01  2.50000000E-01
                       2.51000000E-01  7.50000000E-01  5.00000000E-01
                       2.51000000E-01  7.50000000E-01  7.50000000E-01
                       5.01000000E-01  0.00000000E+00  0.00000000E+00
                       5.01000000E-01  0.00000000E+00  2.50000000E-01
                       5.01000000E-01  0.00000000E+00  5.00000000E-01
                       5.01000000E-01  0.00000000E+00  7.50000000E-01
                       5.01000000E-01  2.50000000E-01  0.00000000E+00
                       5.01000000E-01  2.50000000E-01  2.50000000E-01
                       5.01000000E-01  2.50000000E-01  5.00000000E-01
                       5.01000000E-01  2.50000000E-01  7.50000000E-01
                       5.01000000E-01  5.00000000E-01  0.00000000E+00
                       5.01000000E-01  5.00000000E-01  2.50000000E-01
                       5.01000000E-01  5.00000000E-01  5.00000000E-01
                       5.01000000E-01  5.00000000E-01  7.50000000E-01
                       5.01000000E-01  7.50000000E-01  0.00000000E+00
                       5.01000000E-01  7.50000000E-01  2.50000000E-01
                       5.01000000E-01  7.50000000E-01  5.00000000E-01
                       5.01000000E-01  7.50000000E-01  7.50000000E-01
                       7.51000000E-01  0.00000000E+00  0.00000000E+00
                       7.51000000E-01  0.00000000E+00  2.50000000E-01
                       outvar_i_n : Printing only first  50 k-points.
           kptopt           0
P           mkmem          32
            natom           2
            nband           5
            ngfft          16      16      16
             nkpt          64
             nsym          24
           ntypat           2
              occ      2.000000  2.000000  2.000000  2.000000  0.000000
            rprim      0.0000000000E+00  5.3417833251E+00  5.3417833251E+00
                       5.3417833251E+00  0.0000000000E+00  5.3417833251E+00
                       5.3417833251E+00  5.3417833251E+00  0.0000000000E+00
          spgroup         216
           symrel      1  0  0   0  1  0   0  0  1       1  0 -1   0  1 -1   0  0 -1
                       0  1 -1   0  0 -1   1  0 -1      -1  1  0  -1  0  0  -1  0  1
                       0 -1  0   0 -1  1   1 -1  0      -1  0  0  -1  0  1  -1  1  0
                       0  1  0   1  0  0   0  0  1       0  1 -1   1  0 -1   0  0 -1
                      -1  0  0  -1  1  0  -1  0  1       0  0 -1   0  1 -1   1  0 -1
                       0 -1  1   0 -1  0   1 -1  0      -1  0  1  -1  0  0  -1  1  0
                       0  1  0   0  0  1   1  0  0      -1  1  0  -1  0  1  -1  0  0
                       1  0 -1   0  0 -1   0  1 -1       1 -1  0   0 -1  0   0 -1  1
                       0  0  1   0  1  0   1  0  0      -1  0  1  -1  1  0  -1  0  0
                       0 -1  0   1 -1  0   0 -1  1       0  0 -1   1  0 -1   0  1 -1
                       1  0  0   0  0  1   0  1  0       1 -1  0   0 -1  1   0 -1  0
                       0 -1  1   1 -1  0   0 -1  0       0  0  1   1  0  0   0  1  0
           tolwfr      1.00000000E-16
            typat      1  2
              wtk        0.01563    0.01563    0.01563    0.01563    0.01563    0.01563
                         0.01563    0.01563    0.01563    0.01563    0.01563    0.01563
                         0.01563    0.01563    0.01563    0.01563    0.01563    0.01563
                         0.01563    0.01563    0.01563    0.01563    0.01563    0.01563
                         0.01563    0.01563    0.01563    0.01563    0.01563    0.01563
                         0.01563    0.01563    0.01563    0.01563    0.01563    0.01563
                         0.01563    0.01563    0.01563    0.01563    0.01563    0.01563
                         0.01563    0.01563    0.01563    0.01563    0.01563    0.01563
                         0.01563    0.01563
                       outvars : Printing only first  50 k-points.
           xangst      0.0000000000E+00  0.0000000000E+00  0.0000000000E+00
                       1.4133749944E+00  1.4133749944E+00  1.4133749944E+00
            xcart      0.0000000000E+00  0.0000000000E+00  0.0000000000E+00
                       2.6708916626E+00  2.6708916626E+00  2.6708916626E+00
             xred      0.0000000000E+00  0.0000000000E+00  0.0000000000E+00
                       2.5000000000E-01  2.5000000000E-01  2.5000000000E-01
            znucl       31.00000   33.00000

================================================================================

 chkinp: Checking input parameters for consistency.

================================================================================
== DATASET  1 ==================================================================
-   nproc =    2

 Exchange-correlation functional for the present dataset will be:
  LDA: new Teter (4/93) with spin-polarized option - ixc=1
 Citation for XC functional:
  S. Goedecker, M. Teter, J. Huetter, PRB 54, 1703 (1996)

 Real(R)+Recip(G) space primitive vectors, cartesian coordinates (Bohr,Bohr^-1):
 R(1)=  0.0000000  5.3417833  5.3417833  G(1)= -0.0936017  0.0936017  0.0936017
 R(2)=  5.3417833  0.0000000  5.3417833  G(2)=  0.0936017 -0.0936017  0.0936017
 R(3)=  5.3417833  5.3417833  0.0000000  G(3)=  0.0936017  0.0936017 -0.0936017
 Unit cell volume ucvol=  3.0485183E+02 bohr^3
 Angles (23,13,12)=  6.00000000E+01  6.00000000E+01  6.00000000E+01 degrees

 getcut: wavevector=  0.0000  0.0000  0.0000  ngfft=  16  16  16
         ecut(hartree)=      5.000   => boxcut(ratio)=   2.10411

--- Pseudopotential description ------------------------------------------------
- pspini: atom type   1  psp file is ../../../../Data/Pseudos/31-Ga.pspnc
- pspatm: opening atomic psp file    ../../../../Data/Pseudos/31-Ga.pspnc
-  Troullier-Martins psp for element  Ga        Thu Oct 27 17:36:43 EDT 1994
- 31.00000   3.00000    940714                znucl, zion, pspdat
    1    1    1    0      2001   0.00000      pspcod,pspxc,lmax,lloc,mmax,r2well
    0   6.570  15.885    0   1.9956558        l,e99.0,e99.9,nproj,rcpsp
   0.00000000   0.00000000   0.00000000   0.00000000     rms, ekb1, ekb2, epsatm
    1   2.122   7.249    1   1.9956558        l,e99.0,e99.9,nproj,rcpsp
   0.00000000   0.00000000   0.00000000   0.00000000     rms, ekb1, ekb2, epsatm
    2.57649862033350    0.14924926558032    2.22766011456380   rchrg,fchrg,qchrg
 pspatm: epsatm=   27.06235248
         --- l  ekb(1:nproj) -->
             1    2.537532
 pspatm: atomic psp has been read  and splines computed

- pspini: atom type   2  psp file is ../../../../Data/Pseudos/33-As.pspnc
- pspatm: opening atomic psp file    ../../../../Data/Pseudos/33-As.pspnc
-  Troullier-Martins psp for element  As        Thu Oct 27 17:37:14 EDT 1994
- 33.00000   5.00000    940714                znucl, zion, pspdat
    1    1    1    1      2001   0.00000      pspcod,pspxc,lmax,lloc,mmax,r2well
    0   4.772  10.829    1   2.5306160        l,e99.0,e99.9,nproj,rcpsp
   0.00000000   0.00000000   0.00000000   0.00000000     rms, ekb1, ekb2, epsatm
    1   2.745   5.580    0   2.5306160        l,e99.0,e99.9,nproj,rcpsp
   0.00000000   0.00000000   0.00000000   0.00000000     rms, ekb1, ekb2, epsatm
    2.05731715564010    0.36322996461007    2.76014815959125   rchrg,fchrg,qchrg
 pspatm: epsatm=   27.20579911
         --- l  ekb(1:nproj) -->
             0    0.838751
 pspatm: atomic psp has been read  and splines computed

--------------------------------------------------------------------------------

P newkpt: treating      5 bands with npw=     169 for ikpt=   1 by node    0
P newkpt: treating      5 bands with npw=     162 for ikpt=   2 by node    0
P newkpt: treating      5 bands with npw=     168 for ikpt=   3 by node    0
P newkpt: treating      5 bands with npw=     162 for ikpt=   4 by node    0
P newkpt: treating      5 bands with npw=     162 for ikpt=   5 by node    0
P newkpt: treating      5 bands with npw=     165 for ikpt=   6 by node    0
P newkpt: treating      5 bands with npw=     164 for ikpt=   7 by node    0
P newkpt: treating      5 bands with npw=     164 for ikpt=   8 by node    0
P newkpt: treating      5 bands with npw=     168 for ikpt=   9 by node    0
P newkpt: treating      5 bands with npw=     164 for ikpt=  10 by node    0
P newkpt: treating      5 bands with npw=     150 for ikpt=  11 by node    0
P newkpt: treating      5 bands with npw=     164 for ikpt=  12 by node    0
P newkpt: treating      5 bands with npw=     162 for ikpt=  13 by node    0
P newkpt: treating      5 bands with npw=     164 for ikpt=  14 by node    0
P newkpt: treating      5 bands with npw=     164 for ikpt=  15 by node    0
P newkpt: treating      5 bands with npw=     165 for ikpt=  16 by node    0
P newkpt: treating      5 bands with npw=     162 for ikpt=  17 by node    0
P newkpt: treating      5 bands with npw=     165 for ikpt=  18 by node    0
P newkpt: treating      5 bands with npw=     164 for ikpt=  19 by node    0
P newkpt: treating      5 bands with npw=     164 for ikpt=  20 by node    0
P newkpt: treating      5 bands with npw=     165 for ikpt=  21 by node    0
P newkpt: treating      5 bands with npw=     162 for ikpt=  22 by node    0
P newkpt: treating      5 bands with npw=     164 for ikpt=  23 by node    0
P newkpt: treating      5 bands with npw=     164 for ikpt=  24 by node    0
P newkpt: treating      5 bands with npw=     164 for ikpt=  25 by node    0
P newkpt: treating      5 bands with npw=     164 for ikpt=  26 by node    0
P newkpt: treating      5 bands with npw=     164 for ikpt=  27 by node    0
P newkpt: treating      5 bands with npw=     156 for ikpt=  28 by node    0
P newkpt: treating      5 bands with npw=     164 for ikpt=  29 by node    0
P newkpt: treating      5 bands with npw=     164 for ikpt=  30 by node    0
P newkpt: treating      5 bands with npw=     156 for ikpt=  31 by node    0
P newkpt: treating      5 bands with npw=     164 for ikpt=  32 by node    0
P newkpt: treating      5 bands with npw=     168 for ikpt=  33 by node    1
P newkpt: treating      5 bands with npw=     164 for ikpt=  34 by node    1
P newkpt: treating      5 bands with npw=     150 for ikpt=  35 by node    1
P newkpt: treating      5 bands with npw=     164 for ikpt=  36 by node    1
P newkpt: treating      5 bands with npw=     164 for ikpt=  37 by node    1
P newkpt: treating      5 bands with npw=     164 for ikpt=  38 by node    1
P newkpt: treating      5 bands with npw=     164 for ikpt=  39 by node    1
P newkpt: treating      5 bands with npw=     156 for ikpt=  40 by node    1
P newkpt: treating      5 bands with npw=     150 for ikpt=  41 by node    1
P newkpt: treating      5 bands with npw=     164 for ikpt=  42 by node    1
P newkpt: treating      5 bands with npw=     168 for ikpt=  43 by node    1
P newkpt: treating      5 bands with npw=     164 for ikpt=  44 by node    1
P newkpt: treating      5 bands with npw=     164 for ikpt=  45 by node    1
P newkpt: treating      5 bands with npw=     156 for ikpt=  46 by node    1
P newkpt: treating      5 bands with npw=     164 for ikpt=  47 by node    1
P newkpt: treating      5 bands with npw=     164 for ikpt=  48 by node    1
P newkpt: treating      5 bands with npw=     162 for ikpt=  49 by node    1
P newkpt: treating      5 bands with npw=     164 for ikpt=  50 by node    1
 newkpt: prtvol=0 or 1, do not print more k-points.


================================================================================

     iter   Etot(hartree)      deltaE(h)  residm     vres2
 prteigrs : about to open file out_data/odat_EIG
 Non-SCF case, kpt    1 (  0.00100  0.00000  0.00000), residuals and eigenvalues=
  4.74E-17  1.48E-17  3.52E-17  8.57E-17  1.88E-17
 -4.6802E-01 -1.3057E-02 -1.3043E-02 -1.3043E-02  1.1466E-02
 Non-SCF case, kpt    2 (  0.00100  0.00000  0.25000), residuals and eigenvalues=
  2.64E-17  8.13E-17  3.13E-17  5.27E-17  3.16E-17
 -4.4477E-01 -1.5818E-01 -3.3645E-02 -3.3424E-02  4.3890E-02
 Non-SCF case, kpt    3 (  0.00100  0.00000  0.50000), residuals and eigenvalues=
  8.07E-18  2.89E-17  7.66E-17  1.01E-17  1.02E-17
 -4.0957E-01 -2.4531E-01 -4.7598E-02 -4.7594E-02  2.3837E-02
 Non-SCF case, kpt    4 (  0.00100  0.00000  0.75000), residuals and eigenvalues=
  1.22E-17  2.00E-17  4.12E-17  5.43E-17  2.37E-17
 -4.4466E-01 -1.5856E-01 -3.3717E-02 -3.3489E-02  4.3806E-02
 Non-SCF case, kpt    5 (  0.00100  0.25000  0.00000), residuals and eigenvalues=
  3.93E-17  2.15E-17  4.42E-17  5.01E-17  7.47E-17
 -4.4477E-01 -1.5818E-01 -3.3645E-02 -3.3424E-02  4.3890E-02
 Non-SCF case, kpt    6 (  0.00100  0.25000  0.25000), residuals and eigenvalues=
  3.66E-17  1.62E-17  2.75E-17  8.85E-17  5.05E-17
 -4.3684E-01 -1.5750E-01 -6.7451E-02 -6.7450E-02  5.7431E-02
 Non-SCF case, kpt    7 (  0.00100  0.25000  0.50000), residuals and eigenvalues=
  9.38E-17  1.35E-17  2.93E-17  4.28E-17  8.04E-17
 -3.9903E-01 -2.3284E-01 -1.2322E-01 -7.8215E-02  6.2123E-02
 Non-SCF case, kpt    8 (  0.00100  0.25000  0.75000), residuals and eigenvalues=
  9.92E-17  4.60E-17  6.09E-17  2.81E-17  3.44E-17
 -4.1290E-01 -2.1125E-01 -1.2812E-01 -5.0652E-02  8.5972E-02
 Non-SCF case, kpt    9 (  0.00100  0.50000  0.00000), residuals and eigenvalues=
  1.45E-17  4.64E-17  6.16E-17  3.64E-17  8.23E-17
 -4.0957E-01 -2.4531E-01 -4.7598E-02 -4.7594E-02  2.3837E-02
 Non-SCF case, kpt   10 (  0.00100  0.50000  0.25000), residuals and eigenvalues=
  2.43E-17  2.36E-17  1.36E-17  7.67E-18  5.82E-17
 -3.9903E-01 -2.3284E-01 -1.2322E-01 -7.8215E-02  6.2123E-02
 Non-SCF case, kpt   11 (  0.00100  0.50000  0.50000), residuals and eigenvalues=
  6.33E-17  7.19E-17  5.32E-17  3.67E-17  6.88E-18
 -3.8293E-01 -2.5144E-01 -9.9407E-02 -9.9405E-02  3.2002E-02
 Non-SCF case, kpt   12 (  0.00100  0.50000  0.75000), residuals and eigenvalues=
  6.16E-17  1.93E-17  7.91E-17  6.26E-17  1.81E-17
 -3.9885E-01 -2.3302E-01 -1.2355E-01 -7.8328E-02  6.1975E-02
 Non-SCF case, kpt   13 (  0.00100  0.75000  0.00000), residuals and eigenvalues=
  2.99E-17  9.46E-17  9.43E-18  3.11E-17  9.24E-17
 -4.4466E-01 -1.5856E-01 -3.3717E-02 -3.3489E-02  4.3806E-02
 Non-SCF case, kpt   14 (  0.00100  0.75000  0.25000), residuals and eigenvalues=
  1.77E-17  3.25E-17  9.29E-17  3.69E-17  2.65E-17
 -4.1290E-01 -2.1125E-01 -1.2812E-01 -5.0652E-02  8.5972E-02
 Non-SCF case, kpt   15 (  0.00100  0.75000  0.50000), residuals and eigenvalues=
  6.61E-17  2.08E-17  5.33E-17  1.69E-17  4.11E-17
 -3.9885E-01 -2.3302E-01 -1.2355E-01 -7.8328E-02  6.1975E-02
 Non-SCF case, kpt   16 (  0.00100  0.75000  0.75000), residuals and eigenvalues=
  3.15E-17  7.56E-17  3.94E-17  2.51E-17  4.12E-17
 -4.3660E-01 -1.5806E-01 -6.7693E-02 -6.7692E-02  5.7182E-02
 Non-SCF case, kpt   17 (  0.25100  0.00000  0.00000), residuals and eigenvalues=
  2.03E-17  3.87E-17  9.37E-17  4.13E-17  1.48E-17
 -4.4455E-01 -1.5894E-01 -3.3669E-02 -3.3669E-02  4.3718E-02
 Non-SCF case, kpt   18 (  0.25100  0.00000  0.25000), residuals and eigenvalues=
  8.39E-17  6.62E-17  4.63E-17  1.99E-17  2.42E-17
 -4.3660E-01 -1.5806E-01 -6.7693E-02 -6.7692E-02  5.7182E-02
 Non-SCF case, kpt   19 (  0.25100  0.00000  0.50000), residuals and eigenvalues=
  8.39E-17  4.05E-17  3.29E-17  7.62E-17  2.45E-17
 -3.9886E-01 -2.3293E-01 -1.2352E-01 -7.8425E-02  6.1873E-02
 Non-SCF case, kpt   20 (  0.25100  0.00000  0.75000), residuals and eigenvalues=
  7.69E-17  2.46E-17  1.44E-17  7.24E-17  3.40E-17
 -4.1273E-01 -2.1149E-01 -1.2833E-01 -5.0802E-02  8.5874E-02
 Non-SCF case, kpt   21 (  0.25100  0.25000  0.00000), residuals and eigenvalues=
  1.33E-17  5.94E-17  3.63E-17  8.21E-17  6.09E-17
 -4.3660E-01 -1.5806E-01 -6.7693E-02 -6.7692E-02  5.7182E-02
 Non-SCF case, kpt   22 (  0.25100  0.25000  0.25000), residuals and eigenvalues=
  4.98E-17  4.75E-17  2.50E-17  5.98E-17  2.93E-17
 -4.4466E-01 -1.5856E-01 -3.3717E-02 -3.3489E-02  4.3806E-02
 Non-SCF case, kpt   23 (  0.25100  0.25000  0.50000), residuals and eigenvalues=
  4.65E-17  5.33E-17  4.48E-17  2.12E-17  7.42E-17
 -4.1290E-01 -2.1125E-01 -1.2812E-01 -5.0652E-02  8.5972E-02
 Non-SCF case, kpt   24 (  0.25100  0.25000  0.75000), residuals and eigenvalues=
  3.55E-17  7.26E-17  3.55E-17  3.31E-17  6.24E-17
 -3.9885E-01 -2.3302E-01 -1.2355E-01 -7.8328E-02  6.1975E-02
 Non-SCF case, kpt   25 (  0.25100  0.50000  0.00000), residuals and eigenvalues=
  2.07E-17  6.54E-17  2.31E-17  6.78E-18  3.11E-17
 -3.9886E-01 -2.3293E-01 -1.2352E-01 -7.8425E-02  6.1873E-02
 Non-SCF case, kpt   26 (  0.25100  0.50000  0.25000), residuals and eigenvalues=
  2.58E-17  3.62E-17  4.71E-17  7.78E-18  4.87E-17
 -4.1290E-01 -2.1125E-01 -1.2812E-01 -5.0652E-02  8.5972E-02
 Non-SCF case, kpt   27 (  0.25100  0.50000  0.50000), residuals and eigenvalues=
  2.40E-17  4.16E-17  2.28E-17  1.52E-17  4.14E-17
 -3.9902E-01 -2.3293E-01 -1.2325E-01 -7.8116E-02  6.2219E-02
 Non-SCF case, kpt   28 (  0.25100  0.50000  0.75000), residuals and eigenvalues=
  2.19E-17  2.60E-17  9.46E-18  8.80E-17  2.47E-16
 -3.8208E-01 -2.4417E-01 -1.3523E-01 -1.2470E-01  1.4690E-01
  prteigrs : nnsclo,ikpt=   30   28 max resid (incl. the buffer)=  2.46538E-16
 Non-SCF case, kpt   29 (  0.25100  0.75000  0.00000), residuals and eigenvalues=
  1.47E-17  7.21E-17  1.88E-17  7.43E-17  1.44E-17
 -4.1273E-01 -2.1149E-01 -1.2833E-01 -5.0802E-02  8.5874E-02
 Non-SCF case, kpt   30 (  0.25100  0.75000  0.25000), residuals and eigenvalues=
  1.13E-17  4.94E-17  1.52E-17  4.79E-17  9.27E-17
 -3.9885E-01 -2.3302E-01 -1.2355E-01 -7.8328E-02  6.1975E-02
 Non-SCF case, kpt   31 (  0.25100  0.75000  0.50000), residuals and eigenvalues=
  2.10E-17  2.75E-17  4.45E-17  3.09E-17  8.65E-16
 -3.8208E-01 -2.4417E-01 -1.3523E-01 -1.2470E-01  1.4690E-01
  prteigrs : nnsclo,ikpt=   30   31 max resid (incl. the buffer)=  8.64699E-16
 Non-SCF case, kpt   32 (  0.25100  0.75000  0.75000), residuals and eigenvalues=
  5.41E-17  4.19E-17  2.79E-17  2.66E-17  2.92E-17
 -3.9883E-01 -2.3311E-01 -1.2358E-01 -7.8229E-02  6.2072E-02
 Non-SCF case, kpt   33 (  0.50100  0.00000  0.00000), residuals and eigenvalues=
  3.00E-17  1.75E-17  3.14E-17  3.22E-17  1.86E-17
 -4.0957E-01 -2.4531E-01 -4.7593E-02 -4.7593E-02  2.3832E-02
 Non-SCF case, kpt   34 (  0.50100  0.00000  0.25000), residuals and eigenvalues=
  1.09E-17  4.76E-17  9.67E-17  6.76E-17  7.21E-17
 -3.9883E-01 -2.3311E-01 -1.2358E-01 -7.8229E-02  6.2072E-02
 Non-SCF case, kpt   35 (  0.50100  0.00000  0.50000), residuals and eigenvalues=
  9.56E-17  1.92E-17  2.79E-17  9.85E-17  7.60E-17
 -3.8293E-01 -2.5144E-01 -9.9407E-02 -9.9405E-02  3.2002E-02
 Non-SCF case, kpt   36 (  0.50100  0.00000  0.75000), residuals and eigenvalues=
  1.59E-17  2.74E-17  2.06E-17  3.64E-17  9.90E-17
 -3.9905E-01 -2.3275E-01 -1.2319E-01 -7.8312E-02  6.2021E-02
 Non-SCF case, kpt   37 (  0.50100  0.25000  0.00000), residuals and eigenvalues=
  5.70E-17  5.90E-17  2.27E-17  8.00E-17  9.41E-17
 -3.9883E-01 -2.3311E-01 -1.2358E-01 -7.8229E-02  6.2072E-02
 Non-SCF case, kpt   38 (  0.50100  0.25000  0.25000), residuals and eigenvalues=
  1.30E-17  4.84E-17  9.43E-18  3.66E-17  1.55E-17
 -4.1273E-01 -2.1149E-01 -1.2833E-01 -5.0802E-02  8.5874E-02
 Non-SCF case, kpt   39 (  0.50100  0.25000  0.50000), residuals and eigenvalues=
  4.82E-17  6.02E-17  2.45E-17  7.61E-17  5.59E-17
 -3.9885E-01 -2.3302E-01 -1.2355E-01 -7.8328E-02  6.1975E-02
 Non-SCF case, kpt   40 (  0.50100  0.25000  0.75000), residuals and eigenvalues=
  1.55E-17  9.41E-17  3.02E-17  3.60E-17  7.06E-17
 -3.8208E-01 -2.4417E-01 -1.3523E-01 -1.2470E-01  1.4690E-01
 Non-SCF case, kpt   41 (  0.50100  0.50000  0.00000), residuals and eigenvalues=
  1.58E-17  5.42E-17  9.20E-17  6.34E-18  2.93E-17
 -3.8293E-01 -2.5144E-01 -9.9407E-02 -9.9405E-02  3.2002E-02
 Non-SCF case, kpt   42 (  0.50100  0.50000  0.25000), residuals and eigenvalues=
  1.21E-17  5.43E-17  8.99E-18  2.61E-17  3.68E-17
 -3.9885E-01 -2.3302E-01 -1.2355E-01 -7.8328E-02  6.1975E-02
 Non-SCF case, kpt   43 (  0.50100  0.50000  0.50000), residuals and eigenvalues=
  7.36E-17  1.22E-17  9.51E-17  9.03E-18  7.54E-17
 -4.0957E-01 -2.4531E-01 -4.7598E-02 -4.7594E-02  2.3837E-02
 Non-SCF case, kpt   44 (  0.50100  0.50000  0.75000), residuals and eigenvalues=
  1.21E-17  6.07E-17  4.99E-17  1.13E-17  2.13E-17
 -3.9903E-01 -2.3284E-01 -1.2322E-01 -7.8215E-02  6.2123E-02
 Non-SCF case, kpt   45 (  0.50100  0.75000  0.00000), residuals and eigenvalues=
  6.66E-17  5.35E-17  9.93E-17  1.02E-17  5.22E-17
 -3.9905E-01 -2.3275E-01 -1.2319E-01 -7.8312E-02  6.2021E-02
 Non-SCF case, kpt   46 (  0.50100  0.75000  0.25000), residuals and eigenvalues=
  2.52E-17  9.63E-17  6.71E-17  1.20E-17  4.05E-16
 -3.8208E-01 -2.4417E-01 -1.3523E-01 -1.2470E-01  1.4690E-01
  prteigrs : nnsclo,ikpt=   30   46 max resid (incl. the buffer)=  4.05335E-16
 Non-SCF case, kpt   47 (  0.50100  0.75000  0.50000), residuals and eigenvalues=
  4.04E-17  7.53E-17  4.30E-17  5.97E-17  4.57E-17
 -3.9903E-01 -2.3284E-01 -1.2322E-01 -7.8215E-02  6.2123E-02
 Non-SCF case, kpt   48 (  0.50100  0.75000  0.75000), residuals and eigenvalues=
  4.32E-17  1.56E-17  1.35E-17  6.43E-17  3.87E-17
 -4.1306E-01 -2.1101E-01 -1.2790E-01 -5.0498E-02  8.6064E-02
 Non-SCF case, kpt   49 (  0.75100  0.00000  0.00000), residuals and eigenvalues=
  5.61E-17  1.48E-17  7.49E-17  7.12E-17  9.72E-17
 -4.4488E-01 -1.5780E-01 -3.3463E-02 -3.3463E-02  4.3970E-02
 Non-SCF case, kpt   50 (  0.75100  0.00000  0.25000), residuals and eigenvalues=
  9.64E-17  1.96E-17  7.38E-17  9.56E-17  9.03E-17
 -4.1306E-01 -2.1101E-01 -1.2790E-01 -5.0498E-02  8.6064E-02
 prteigrs : prtvol=0 or 1, do not print more k-points.

  prteigrs : nnsclo,ikpt=   30   55 max resid (incl. the buffer)=  4.67087E-16
  prteigrs : nnsclo,ikpt=   30   58 max resid (incl. the buffer)=  1.17995E-15

 scprqt:  WARNING -
  nstep=   30 was not enough SCF cycles to converge;
  maximum residual=  1.180E-15 exceeds tolwfr=  1.000E-16

================================================================================

 ----iterations are completed or convergence reached----

 Mean square residual over all n,k,spin=   5.2676E-17; max=  1.1799E-15
   0.0010  0.0000  0.0000    1  8.56770E-17 kpt; spin; max resid(k); each band:
  4.74E-17 1.48E-17 3.52E-17 8.57E-17 1.88E-17
   0.0010  0.0000  0.2500    1  8.12694E-17 kpt; spin; max resid(k); each band:
  2.64E-17 8.13E-17 3.13E-17 5.27E-17 3.16E-17
   0.0010  0.0000  0.5000    1  7.65714E-17 kpt; spin; max resid(k); each band:
  8.07E-18 2.89E-17 7.66E-17 1.01E-17 1.02E-17
   0.0010  0.0000  0.7500    1  5.43342E-17 kpt; spin; max resid(k); each band:
  1.22E-17 2.00E-17 4.12E-17 5.43E-17 2.37E-17
   0.0010  0.2500  0.0000    1  7.46678E-17 kpt; spin; max resid(k); each band:
  3.93E-17 2.15E-17 4.42E-17 5.01E-17 7.47E-17
   0.0010  0.2500  0.2500    1  8.84965E-17 kpt; spin; max resid(k); each band:
  3.66E-17 1.62E-17 2.75E-17 8.85E-17 5.05E-17
   0.0010  0.2500  0.5000    1  9.38478E-17 kpt; spin; max resid(k); each band:
  9.38E-17 1.35E-17 2.93E-17 4.28E-17 8.04E-17
   0.0010  0.2500  0.7500    1  9.91821E-17 kpt; spin; max resid(k); each band:
  9.92E-17 4.60E-17 6.09E-17 2.81E-17 3.44E-17
   0.0010  0.5000  0.0000    1  8.23180E-17 kpt; spin; max resid(k); each band:
  1.45E-17 4.64E-17 6.16E-17 3.64E-17 8.23E-17
   0.0010  0.5000  0.2500    1  5.81640E-17 kpt; spin; max resid(k); each band:
  2.43E-17 2.36E-17 1.36E-17 7.67E-18 5.82E-17
   0.0010  0.5000  0.5000    1  7.19007E-17 kpt; spin; max resid(k); each band:
  6.33E-17 7.19E-17 5.32E-17 3.67E-17 6.88E-18
   0.0010  0.5000  0.7500    1  7.91259E-17 kpt; spin; max resid(k); each band:
  6.16E-17 1.93E-17 7.91E-17 6.26E-17 1.81E-17
   0.0010  0.7500  0.0000    1  9.46168E-17 kpt; spin; max resid(k); each band:
  2.99E-17 9.46E-17 9.43E-18 3.11E-17 9.24E-17
   0.0010  0.7500  0.2500    1  9.28804E-17 kpt; spin; max resid(k); each band:
  1.77E-17 3.25E-17 9.29E-17 3.69E-17 2.65E-17
   0.0010  0.7500  0.5000    1  6.60808E-17 kpt; spin; max resid(k); each band:
  6.61E-17 2.08E-17 5.33E-17 1.69E-17 4.11E-17
   0.0010  0.7500  0.7500    1  7.55748E-17 kpt; spin; max resid(k); each band:
  3.15E-17 7.56E-17 3.94E-17 2.51E-17 4.12E-17
   0.2510  0.0000  0.0000    1  9.37267E-17 kpt; spin; max resid(k); each band:
  2.03E-17 3.87E-17 9.37E-17 4.13E-17 1.48E-17
   0.2510  0.0000  0.2500    1  8.38516E-17 kpt; spin; max resid(k); each band:
  8.39E-17 6.62E-17 4.63E-17 1.99E-17 2.42E-17
   0.2510  0.0000  0.5000    1  8.38526E-17 kpt; spin; max resid(k); each band:
  8.39E-17 4.05E-17 3.29E-17 7.62E-17 2.45E-17
   0.2510  0.0000  0.7500    1  7.68517E-17 kpt; spin; max resid(k); each band:
  7.69E-17 2.46E-17 1.44E-17 7.24E-17 3.40E-17
   0.2510  0.2500  0.0000    1  8.20868E-17 kpt; spin; max resid(k); each band:
  1.33E-17 5.94E-17 3.63E-17 8.21E-17 6.09E-17
   0.2510  0.2500  0.2500    1  5.98023E-17 kpt; spin; max resid(k); each band:
  4.98E-17 4.75E-17 2.50E-17 5.98E-17 2.93E-17
   0.2510  0.2500  0.5000    1  7.41507E-17 kpt; spin; max resid(k); each band:
  4.65E-17 5.33E-17 4.48E-17 2.12E-17 7.42E-17
   0.2510  0.2500  0.7500    1  7.26245E-17 kpt; spin; max resid(k); each band:
  3.55E-17 7.26E-17 3.55E-17 3.31E-17 6.24E-17
   0.2510  0.5000  0.0000    1  6.53691E-17 kpt; spin; max resid(k); each band:
  2.07E-17 6.54E-17 2.31E-17 6.78E-18 3.11E-17
   0.2510  0.5000  0.2500    1  4.87046E-17 kpt; spin; max resid(k); each band:
  2.58E-17 3.62E-17 4.71E-17 7.78E-18 4.87E-17
   0.2510  0.5000  0.5000    1  4.15510E-17 kpt; spin; max resid(k); each band:
  2.40E-17 4.16E-17 2.28E-17 1.52E-17 4.14E-17
   0.2510  0.5000  0.7500    1  2.46538E-16 kpt; spin; max resid(k); each band:
  2.19E-17 2.60E-17 9.46E-18 8.80E-17 2.47E-16
   0.2510  0.7500  0.0000    1  7.43126E-17 kpt; spin; max resid(k); each band:
  1.47E-17 7.21E-17 1.88E-17 7.43E-17 1.44E-17
   0.2510  0.7500  0.2500    1  9.26803E-17 kpt; spin; max resid(k); each band:
  1.13E-17 4.94E-17 1.52E-17 4.79E-17 9.27E-17
   0.2510  0.7500  0.5000    1  8.64699E-16 kpt; spin; max resid(k); each band:
  2.10E-17 2.75E-17 4.45E-17 3.09E-17 8.65E-16
   0.2510  0.7500  0.7500    1  5.40882E-17 kpt; spin; max resid(k); each band:
  5.41E-17 4.19E-17 2.79E-17 2.66E-17 2.92E-17
   0.5010  0.0000  0.0000    1  3.21663E-17 kpt; spin; max resid(k); each band:
  3.00E-17 1.75E-17 3.14E-17 3.22E-17 1.86E-17
   0.5010  0.0000  0.2500    1  9.66684E-17 kpt; spin; max resid(k); each band:
  1.09E-17 4.76E-17 9.67E-17 6.76E-17 7.21E-17
   0.5010  0.0000  0.5000    1  9.84739E-17 kpt; spin; max resid(k); each band:
  9.56E-17 1.92E-17 2.79E-17 9.85E-17 7.60E-17
   0.5010  0.0000  0.7500    1  9.90124E-17 kpt; spin; max resid(k); each band:
  1.59E-17 2.74E-17 2.06E-17 3.64E-17 9.90E-17
   0.5010  0.2500  0.0000    1  9.41324E-17 kpt; spin; max resid(k); each band:
  5.70E-17 5.90E-17 2.27E-17 8.00E-17 9.41E-17
   0.5010  0.2500  0.2500    1  4.84497E-17 kpt; spin; max resid(k); each band:
  1.30E-17 4.84E-17 9.43E-18 3.66E-17 1.55E-17
   0.5010  0.2500  0.5000    1  7.60905E-17 kpt; spin; max resid(k); each band:
  4.82E-17 6.02E-17 2.45E-17 7.61E-17 5.59E-17
   0.5010  0.2500  0.7500    1  9.41492E-17 kpt; spin; max resid(k); each band:
  1.55E-17 9.41E-17 3.02E-17 3.60E-17 7.06E-17
   0.5010  0.5000  0.0000    1  9.19584E-17 kpt; spin; max resid(k); each band:
  1.58E-17 5.42E-17 9.20E-17 6.34E-18 2.93E-17
   0.5010  0.5000  0.2500    1  5.42884E-17 kpt; spin; max resid(k); each band:
  1.21E-17 5.43E-17 8.99E-18 2.61E-17 3.68E-17
   0.5010  0.5000  0.5000    1  9.51057E-17 kpt; spin; max resid(k); each band:
  7.36E-17 1.22E-17 9.51E-17 9.03E-18 7.54E-17
   0.5010  0.5000  0.7500    1  6.07226E-17 kpt; spin; max resid(k); each band:
  1.21E-17 6.07E-17 4.99E-17 1.13E-17 2.13E-17
   0.5010  0.7500  0.0000    1  9.92924E-17 kpt; spin; max resid(k); each band:
  6.66E-17 5.35E-17 9.93E-17 1.02E-17 5.22E-17
   0.5010  0.7500  0.2500    1  4.05335E-16 kpt; spin; max resid(k); each band:
  2.52E-17 9.63E-17 6.71E-17 1.20E-17 4.05E-16
   0.5010  0.7500  0.5000    1  7.52922E-17 kpt; spin; max resid(k); each band:
  4.04E-17 7.53E-17 4.30E-17 5.97E-17 4.57E-17
   0.5010  0.7500  0.7500    1  6.43420E-17 kpt; spin; max resid(k); each band:
  4.32E-17 1.56E-17 1.35E-17 6.43E-17 3.87E-17
   0.7510  0.0000  0.0000    1  9.72348E-17 kpt; spin; max resid(k); each band:
  5.61E-17 1.48E-17 7.49E-17 7.12E-17 9.72E-17
   0.7510  0.0000  0.2500    1  9.64048E-17 kpt; spin; max resid(k); each band:
  9.64E-17 1.96E-17 7.38E-17 9.56E-17 9.03E-17
 outwf : prtvol=0 or 1, do not print more k-points.

 reduced coordinates (array xred) for    2 atoms
       0.000000000000      0.000000000000      0.000000000000
       0.250000000000      0.250000000000      0.250000000000

 cartesian coordinates (angstrom) at end:
    1      0.00000000000000     0.00000000000000     0.00000000000000
    2      1.41337499444457     1.41337499444457     1.41337499444457
 length scales=  1.000000000000  1.000000000000  1.000000000000 bohr
              =  0.529177208590  0.529177208590  0.529177208590 angstroms
 prteigrs : about to open file out_data/odat_EIG
 Eigenvalues (hartree) for nkpt=  64  k points:
 kpt#   1, nband=  5, wtk=  0.01563, kpt=  0.0010  0.0000  0.0000 (reduced coord)
  -0.46802  -0.01306  -0.01304  -0.01304   0.01147
 kpt#   2, nband=  5, wtk=  0.01563, kpt=  0.0010  0.0000  0.2500 (reduced coord)
  -0.44477  -0.15818  -0.03365  -0.03342   0.04389
 kpt#   3, nband=  5, wtk=  0.01563, kpt=  0.0010  0.0000  0.5000 (reduced coord)
  -0.40957  -0.24531  -0.04760  -0.04759   0.02384
 kpt#   4, nband=  5, wtk=  0.01563, kpt=  0.0010  0.0000  0.7500 (reduced coord)
  -0.44466  -0.15856  -0.03372  -0.03349   0.04381
 kpt#   5, nband=  5, wtk=  0.01563, kpt=  0.0010  0.2500  0.0000 (reduced coord)
  -0.44477  -0.15818  -0.03365  -0.03342   0.04389
 kpt#   6, nband=  5, wtk=  0.01563, kpt=  0.0010  0.2500  0.2500 (reduced coord)
  -0.43684  -0.15750  -0.06745  -0.06745   0.05743
 kpt#   7, nband=  5, wtk=  0.01563, kpt=  0.0010  0.2500  0.5000 (reduced coord)
  -0.39903  -0.23284  -0.12322  -0.07822   0.06212
 kpt#   8, nband=  5, wtk=  0.01563, kpt=  0.0010  0.2500  0.7500 (reduced coord)
  -0.41290  -0.21125  -0.12812  -0.05065   0.08597
 kpt#   9, nband=  5, wtk=  0.01563, kpt=  0.0010  0.5000  0.0000 (reduced coord)
  -0.40957  -0.24531  -0.04760  -0.04759   0.02384
 kpt#  10, nband=  5, wtk=  0.01563, kpt=  0.0010  0.5000  0.2500 (reduced coord)
  -0.39903  -0.23284  -0.12322  -0.07822   0.06212
 kpt#  11, nband=  5, wtk=  0.01563, kpt=  0.0010  0.5000  0.5000 (reduced coord)
  -0.38293  -0.25144  -0.09941  -0.09941   0.03200
 kpt#  12, nband=  5, wtk=  0.01563, kpt=  0.0010  0.5000  0.7500 (reduced coord)
  -0.39885  -0.23302  -0.12355  -0.07833   0.06198
 kpt#  13, nband=  5, wtk=  0.01563, kpt=  0.0010  0.7500  0.0000 (reduced coord)
  -0.44466  -0.15856  -0.03372  -0.03349   0.04381
 kpt#  14, nband=  5, wtk=  0.01563, kpt=  0.0010  0.7500  0.2500 (reduced coord)
  -0.41290  -0.21125  -0.12812  -0.05065   0.08597
 kpt#  15, nband=  5, wtk=  0.01563, kpt=  0.0010  0.7500  0.5000 (reduced coord)
  -0.39885  -0.23302  -0.12355  -0.07833   0.06198
 kpt#  16, nband=  5, wtk=  0.01563, kpt=  0.0010  0.7500  0.7500 (reduced coord)
  -0.43660  -0.15806  -0.06769  -0.06769   0.05718
 kpt#  17, nband=  5, wtk=  0.01563, kpt=  0.2510  0.0000  0.0000 (reduced coord)
  -0.44455  -0.15894  -0.03367  -0.03367   0.04372
 kpt#  18, nband=  5, wtk=  0.01563, kpt=  0.2510  0.0000  0.2500 (reduced coord)
  -0.43660  -0.15806  -0.06769  -0.06769   0.05718
 kpt#  19, nband=  5, wtk=  0.01563, kpt=  0.2510  0.0000  0.5000 (reduced coord)
  -0.39886  -0.23293  -0.12352  -0.07843   0.06187
 kpt#  20, nband=  5, wtk=  0.01563, kpt=  0.2510  0.0000  0.7500 (reduced coord)
  -0.41273  -0.21149  -0.12833  -0.05080   0.08587
 kpt#  21, nband=  5, wtk=  0.01563, kpt=  0.2510  0.2500  0.0000 (reduced coord)
  -0.43660  -0.15806  -0.06769  -0.06769   0.05718
 kpt#  22, nband=  5, wtk=  0.01563, kpt=  0.2510  0.2500  0.2500 (reduced coord)
  -0.44466  -0.15856  -0.03372  -0.03349   0.04381
 kpt#  23, nband=  5, wtk=  0.01563, kpt=  0.2510  0.2500  0.5000 (reduced coord)
  -0.41290  -0.21125  -0.12812  -0.05065   0.08597
 kpt#  24, nband=  5, wtk=  0.01563, kpt=  0.2510  0.2500  0.7500 (reduced coord)
  -0.39885  -0.23302  -0.12355  -0.07833   0.06198
 kpt#  25, nband=  5, wtk=  0.01563, kpt=  0.2510  0.5000  0.0000 (reduced coord)
  -0.39886  -0.23293  -0.12352  -0.07843   0.06187
 kpt#  26, nband=  5, wtk=  0.01563, kpt=  0.2510  0.5000  0.2500 (reduced coord)
  -0.41290  -0.21125  -0.12812  -0.05065   0.08597
 kpt#  27, nband=  5, wtk=  0.01563, kpt=  0.2510  0.5000  0.5000 (reduced coord)
  -0.39902  -0.23293  -0.12325  -0.07812   0.06222
 kpt#  28, nband=  5, wtk=  0.01563, kpt=  0.2510  0.5000  0.7500 (reduced coord)
  -0.38208  -0.24417  -0.13523  -0.12470   0.14690
 kpt#  29, nband=  5, wtk=  0.01563, kpt=  0.2510  0.7500  0.0000 (reduced coord)
  -0.41273  -0.21149  -0.12833  -0.05080   0.08587
 kpt#  30, nband=  5, wtk=  0.01563, kpt=  0.2510  0.7500  0.2500 (reduced coord)
  -0.39885  -0.23302  -0.12355  -0.07833   0.06198
 kpt#  31, nband=  5, wtk=  0.01563, kpt=  0.2510  0.7500  0.5000 (reduced coord)
  -0.38208  -0.24417  -0.13523  -0.12470   0.14690
 kpt#  32, nband=  5, wtk=  0.01563, kpt=  0.2510  0.7500  0.7500 (reduced coord)
  -0.39883  -0.23311  -0.12358  -0.07823   0.06207
 kpt#  33, nband=  5, wtk=  0.01563, kpt=  0.5010  0.0000  0.0000 (reduced coord)
  -0.40957  -0.24531  -0.04759  -0.04759   0.02383
 kpt#  34, nband=  5, wtk=  0.01563, kpt=  0.5010  0.0000  0.2500 (reduced coord)
  -0.39883  -0.23311  -0.12358  -0.07823   0.06207
 kpt#  35, nband=  5, wtk=  0.01563, kpt=  0.5010  0.0000  0.5000 (reduced coord)
  -0.38293  -0.25144  -0.09941  -0.09941   0.03200
 kpt#  36, nband=  5, wtk=  0.01563, kpt=  0.5010  0.0000  0.7500 (reduced coord)
  -0.39905  -0.23275  -0.12319  -0.07831   0.06202
 kpt#  37, nband=  5, wtk=  0.01563, kpt=  0.5010  0.2500  0.0000 (reduced coord)
  -0.39883  -0.23311  -0.12358  -0.07823   0.06207
 kpt#  38, nband=  5, wtk=  0.01563, kpt=  0.5010  0.2500  0.2500 (reduced coord)
  -0.41273  -0.21149  -0.12833  -0.05080   0.08587
 kpt#  39, nband=  5, wtk=  0.01563, kpt=  0.5010  0.2500  0.5000 (reduced coord)
  -0.39885  -0.23302  -0.12355  -0.07833   0.06198
 kpt#  40, nband=  5, wtk=  0.01563, kpt=  0.5010  0.2500  0.7500 (reduced coord)
  -0.38208  -0.24417  -0.13523  -0.12470   0.14690
 kpt#  41, nband=  5, wtk=  0.01563, kpt=  0.5010  0.5000  0.0000 (reduced coord)
  -0.38293  -0.25144  -0.09941  -0.09941   0.03200
 kpt#  42, nband=  5, wtk=  0.01563, kpt=  0.5010  0.5000  0.2500 (reduced coord)
  -0.39885  -0.23302  -0.12355  -0.07833   0.06198
 kpt#  43, nband=  5, wtk=  0.01563, kpt=  0.5010  0.5000  0.5000 (reduced coord)
  -0.40957  -0.24531  -0.04760  -0.04759   0.02384
 kpt#  44, nband=  5, wtk=  0.01563, kpt=  0.5010  0.5000  0.7500 (reduced coord)
  -0.39903  -0.23284  -0.12322  -0.07822   0.06212
 kpt#  45, nband=  5, wtk=  0.01563, kpt=  0.5010  0.7500  0.0000 (reduced coord)
  -0.39905  -0.23275  -0.12319  -0.07831   0.06202
 kpt#  46, nband=  5, wtk=  0.01563, kpt=  0.5010  0.7500  0.2500 (reduced coord)
  -0.38208  -0.24417  -0.13523  -0.12470   0.14690
 kpt#  47, nband=  5, wtk=  0.01563, kpt=  0.5010  0.7500  0.5000 (reduced coord)
  -0.39903  -0.23284  -0.12322  -0.07822   0.06212
 kpt#  48, nband=  5, wtk=  0.01563, kpt=  0.5010  0.7500  0.7500 (reduced coord)
  -0.41306  -0.21101  -0.12790  -0.05050   0.08606
 kpt#  49, nband=  5, wtk=  0.01563, kpt=  0.7510  0.0000  0.0000 (reduced coord)
  -0.44488  -0.15780  -0.03346  -0.03346   0.04397
 kpt#  50, nband=  5, wtk=  0.01563, kpt=  0.7510  0.0000  0.2500 (reduced coord)
  -0.41306  -0.21101  -0.12790  -0.05050   0.08606
 prteigrs : prtvol=0 or 1, do not print more k-points.

 Total charge density [el/Bohr^3]
,     Maximum=    0.0000E+00  at reduced coord.    0.9375    0.9375    0.9375
,Next maximum=    0.0000E+00  at reduced coord.    0.8750    0.9375    0.9375
,     Minimum=    0.0000E+00  at reduced coord.    0.0000    0.0000    0.0000
,Next minimum=    0.0000E+00  at reduced coord.    0.0625    0.0000    0.0000
,  Integrated=    0.0000E+00

--------------------------------------------------------------------------------
 Components of total free energy (in Hartree) :

    Kinetic energy  =  2.96240258915892E+00
    Hartree energy  =  8.08215407839560E-01
    XC energy       = -4.87103788555652E+00
    Ewald energy    = -8.42150358167426E+00
    PspCore energy  =  1.42411878990362E+00
    Loc. psp. energy= -2.76084254690915E+00
    NL   psp  energy=  1.40155615659225E-01
    >>>>>>>>> Etotal= -1.07184916115786E+01

 "Double-counting" decomposition of free energy:
    Band energy     = -1.58447665941126E+00
    Ewald energy    = -8.42150358167426E+00
    PspCore energy  =  1.42411878990362E+00
    Dble-C XC-energy= -2.13741971254351E+00
    >>>> Etotal (DC)= -1.07192811637254E+01
--------------------------------------------------------------------------------

== END DATASET(S) ==============================================================
================================================================================
  
 -outvars: echo values of variables after computation  --------
            acell      1.0000000000E+00  1.0000000000E+00  1.0000000000E+00 Bohr
              amu      6.97230000E+01  7.49215900E+01
             ecut      5.00000000E+00 Hartree
           etotal     -1.0720201259E+01
-          fftalg         112
           irdden           1
             iscf          -3
              kpt      1.00000000E-03  0.00000000E+00  0.00000000E+00
                       1.00000000E-03  0.00000000E+00  2.50000000E-01
                       1.00000000E-03  0.00000000E+00  5.00000000E-01
                       1.00000000E-03  0.00000000E+00  7.50000000E-01
                       1.00000000E-03  2.50000000E-01  0.00000000E+00
                       1.00000000E-03  2.50000000E-01  2.50000000E-01
                       1.00000000E-03  2.50000000E-01  5.00000000E-01
                       1.00000000E-03  2.50000000E-01  7.50000000E-01
                       1.00000000E-03  5.00000000E-01  0.00000000E+00
                       1.00000000E-03  5.00000000E-01  2.50000000E-01
                       1.00000000E-03  5.00000000E-01  5.00000000E-01
                       1.00000000E-03  5.00000000E-01  7.50000000E-01
                       1.00000000E-03  7.50000000E-01  0.00000000E+00
                       1.00000000E-03  7.50000000E-01  2.50000000E-01
                       1.00000000E-03  7.50000000E-01  5.00000000E-01
                       1.00000000E-03  7.50000000E-01  7.50000000E-01
                       2.51000000E-01  0.00000000E+00  0.00000000E+00
                       2.51000000E-01  0.00000000E+00  2.50000000E-01
                       2.51000000E-01  0.00000000E+00  5.00000000E-01
                       2.51000000E-01  0.00000000E+00  7.50000000E-01
                       2.51000000E-01  2.50000000E-01  0.00000000E+00
                       2.51000000E-01  2.50000000E-01  2.50000000E-01
                       2.51000000E-01  2.50000000E-01  5.00000000E-01
                       2.51000000E-01  2.50000000E-01  7.50000000E-01
                       2.51000000E-01  5.00000000E-01  0.00000000E+00
                       2.51000000E-01  5.00000000E-01  2.50000000E-01
                       2.51000000E-01  5.00000000E-01  5.00000000E-01
                       2.51000000E-01  5.00000000E-01  7.50000000E-01
                       2.51000000E-01  7.50000000E-01  0.00000000E+00
                       2.51000000E-01  7.50000000E-01  2.50000000E-01
                       2.51000000E-01  7.50000000E-01  5.00000000E-01
                       2.51000000E-01  7.50000000E-01  7.50000000E-01
                       5.01000000E-01  0.00000000E+00  0.00000000E+00
                       5.01000000E-01  0.00000000E+00  2.50000000E-01
                       5.01000000E-01  0.00000000E+00  5.00000000E-01
                       5.01000000E-01  0.00000000E+00  7.50000000E-01
                       5.01000000E-01  2.50000000E-01  0.00000000E+00
                       5.01000000E-01  2.50000000E-01  2.50000000E-01
                       5.01000000E-01  2.50000000E-01  5.00000000E-01
                       5.01000000E-01  2.50000000E-01  7.50000000E-01
                       5.01000000E-01  5.00000000E-01  0.00000000E+00
                       5.01000000E-01  5.00000000E-01  2.50000000E-01
                       5.01000000E-01  5.00000000E-01  5.00000000E-01
                       5.01000000E-01  5.00000000E-01  7.50000000E-01
                       5.01000000E-01  7.50000000E-01  0.00000000E+00
                       5.01000000E-01  7.50000000E-01  2.50000000E-01
                       5.01000000E-01  7.50000000E-01  5.00000000E-01
                       5.01000000E-01  7.50000000E-01  7.50000000E-01
                       7.51000000E-01  0.00000000E+00  0.00000000E+00
                       7.51000000E-01  0.00000000E+00  2.50000000E-01
                       outvar_i_n : Printing only first  50 k-points.
           kptopt           0
P           mkmem          32
            natom           2
            nband           5
            ngfft          16      16      16
             nkpt          64
             nsym          24
           ntypat           2
              occ      2.000000  2.000000  2.000000  2.000000  0.000000
            rprim      0.0000000000E+00  5.3417833251E+00  5.3417833251E+00
                       5.3417833251E+00  0.0000000000E+00  5.3417833251E+00
                       5.3417833251E+00  5.3417833251E+00  0.0000000000E+00
          spgroup         216
           symrel      1  0  0   0  1  0   0  0  1       1  0 -1   0  1 -1   0  0 -1
                       0  1 -1   0  0 -1   1  0 -1      -1  1  0  -1  0  0  -1  0  1
                       0 -1  0   0 -1  1   1 -1  0      -1  0  0  -1  0  1  -1  1  0
                       0  1  0   1  0  0   0  0  1       0  1 -1   1  0 -1   0  0 -1
                      -1  0  0  -1  1  0  -1  0  1       0  0 -1   0  1 -1   1  0 -1
                       0 -1  1   0 -1  0   1 -1  0      -1  0  1  -1  0  0  -1  1  0
                       0  1  0   0  0  1   1  0  0      -1  1  0  -1  0  1  -1  0  0
                       1  0 -1   0  0 -1   0  1 -1       1 -1  0   0 -1  0   0 -1  1
                       0  0  1   0  1  0   1  0  0      -1  0  1  -1  1  0  -1  0  0
                       0 -1  0   1 -1  0   0 -1  1       0  0 -1   1  0 -1   0  1 -1
                       1  0  0   0  0  1   0  1  0       1 -1  0   0 -1  1   0 -1  0
                       0 -1  1   1 -1  0   0 -1  0       0  0  1   1  0  0   0  1  0
           tolwfr      1.00000000E-16
            typat      1  2
              wtk        0.01563    0.01563    0.01563    0.01563    0.01563    0.01563
                         0.01563    0.01563    0.01563    0.01563    0.01563    0.01563
                         0.01563    0.01563    0.01563    0.01563    0.01563    0.01563
                         0.01563    0.01563    0.01563    0.01563    0.01563    0.01563
                         0.01563    0.01563    0.01563    0.01563    0.01563    0.01563
                         0.01563    0.01563    0.01563    0.01563    0.01563    0.01563
                         0.01563    0.01563    0.01563    0.01563    0.01563    0.01563
                         0.01563    0.01563    0.01563    0.01563    0.01563    0.01563
                         0.01563    0.01563
                       outvars : Printing only first  50 k-points.
           xangst      0.0000000000E+00  0.0000000000E+00  0.0000000000E+00
                       1.4133749944E+00  1.4133749944E+00  1.4133749944E+00
            xcart      0.0000000000E+00  0.0000000000E+00  0.0000000000E+00
                       2.6708916626E+00  2.6708916626E+00  2.6708916626E+00
             xred      0.0000000000E+00  0.0000000000E+00  0.0000000000E+00
                       2.5000000000E-01  2.5000000000E-01  2.5000000000E-01
            znucl       31.00000   33.00000

================================================================================


- Timing analysis has been suppressed with timopt=0



================================================================================

 Suggested references for the acknowledgment of ABINIT usage.

 The users of ABINIT have little formal obligations with respect to the ABINIT group
 (those specified in the GNU General Public License, http://www.gnu.org/copyleft/gpl.txt).
 However, it is common practice in the scientific literature,
 to acknowledge the efforts of people that have made the research possible.
 In this spirit, please find below suggested citations of work written by ABINIT developers,
 corresponding to implementations inside of ABINIT that you have used in the present run.
 Note also that it will be of great value to readers of publications presenting these results,
 to read papers enabling them to understand the theoretical formalism and details
 of the ABINIT implementation.
 For information on why they are suggested, see also http://www.abinit.org/about/?text=acknowledgments.
-
- [1] ABINIT : First-principles approach of materials and nanosystem properties.
- X. Gonze, B. Amadon, P.-M. Anglade, J.-M. Beuken, F. Bottin, P. Boulanger, F. Bruneval,
- D. Caliste, R. Caracas, M. Cote, T. Deutsch, L. Genovese, Ph. Ghosez, M. Giantomassi
- S. Goedecker, D.R. Hamann, P. Hermet, F. Jollet, G. Jomard, S. Leroux, M. Mancini, S. Mazevet,
- M.J.T. Oliveira, G. Onida, Y. Pouillon, T. Rangel, G.-M. Rignanese, D. Sangalli, R. Shaltaf,
- M. Torrent, M.J. Verstraete, G. Zerah, J.W. Zwanziger
- Computer Phys. Comm. 180, 2582-2615 (2009).
- Comment : the third generic paper describing the ABINIT project.
- Note that a version of this paper, that is not formatted for Computer Phys. Comm. 
- is available at http://www.abinit.org/about/ABINIT_CPC_v10.pdf .
- The licence allows the authors to put it on the Web.
-
- [2] A brief introduction to the ABINIT software package.
- X. Gonze, G.-M. Rignanese, M. Verstraete, J.-M. Beuken, Y. Pouillon, R. Caracas, F. Jollet,
- M. Torrent, G. Zerah, M. Mikami, Ph. Ghosez, M. Veithen, J.-Y. Raty, V. Olevano, F. Bruneval,
- L. Reining, R. Godby, G. Onida, D.R. Hamann, and D.C. Allan.
- Z. Kristallogr. 220, 558-562 (2005).
- Comment : the second generic paper describing the ABINIT project. Note that this paper
- should be cited especially if you are using the GW part of ABINIT, as several authors
- of this part are not in the list of authors of the first or third paper.
- The .pdf of the latter paper is available at http://www.abinit.org/about/zfk_0505-06_558-562.pdf.
- Note that it should not redistributed (Copyright by Oldenburg Wissenshaftverlag,
- the licence allows the authors to put it on the Web).
-
- And optionally:
-
- [3] First-principles computation of material properties : the ABINIT software project. 
- X. Gonze, J.-M. Beuken, R. Caracas, F. Detraux, M. Fuchs, G.-M. Rignanese, L. Sindic,
- M. Verstraete, G. Zerah, F. Jollet, M. Torrent, A. Roy, M. Mikami, Ph. Ghosez, J.-Y. Raty, D.C. Allan.
- Computational Materials Science 25, 478-492 (2002). http://dx.doi.org/10.1016/S0927-0256(02)00325-7
- Comment : the original paper describing the ABINIT project.
-
- [4] Fast radix 2, 3, 4 and 5 kernels for Fast Fourier Transformations
- on computers with overlapping multiply-add instructions.
- S. Goedecker, SIAM J. on Scientific Computing 18, 1605 (1997).
-
- Proc.   0 individual time (sec): cpu=          1.0  wall=          1.0

================================================================================

 Calculation completed.
.Delivered   1 WARNINGs and   0 COMMENTs to log file.
+Overall time at end (sec) : cpu=          2.0  wall=          2.1
