
     Program PWSCF v.5.1.2 starts on 12Nov2015 at 11:29:47 

     This program is part of the open-source Quantum ESPRESSO suite
     for quantum simulation of materials; please cite
         "P. Giannozzi et al., J. Phys.:Condens. Matter 21 395502 (2009);
          URL http://www.quantum-espresso.org", 
     in publications or presentations arising from this work. More details at
     http://www.quantum-espresso.org/quote

     Parallel version (MPI), running on     1 processors
     Reading input from wfn.in

     Current dimensions of program PWSCF are:
     Max number of different atomic species (ntypx) = 10
     Max number of k-points (npk) =  40000
     Max angular momentum in pseudopotentials (lmaxx) =  3

     Atomic positions and unit cell read from directory:
     ./GaAs.save/

               file 31-Ga.PBE.UPF: wavefunction(s)  4d 4f renormalized
               file 33-As.PBE.UPF: wavefunction(s)  4f renormalized

     Subspace diagonalization in iterative solution of the eigenvalue problem:
     a serial algorithm will be used


     G-vector sticks info
     --------------------
     sticks:   dense  smooth     PW     G-vecs:    dense   smooth      PW
     Sum         163     163     61                 1291     1291     331



     bravais-lattice index     =            0
     lattice parameter (alat)  =       7.5544  a.u.
     unit-cell volume          =     304.8518 (a.u.)^3
     number of atoms/cell      =            2
     number of atomic types    =            2
     number of electrons       =         8.00
     number of Kohn-Sham states=           20
     kinetic-energy cutoff     =      10.0000  Ry
     charge density cutoff     =      40.0000  Ry
     Exchange-correlation      = PBE ( 1  4  3  4 0 0)

     celldm(1)=   7.554422  celldm(2)=   0.000000  celldm(3)=   0.000000
     celldm(4)=   0.000000  celldm(5)=   0.000000  celldm(6)=   0.000000

     crystal axes: (cart. coord. in units of alat)
               a(1) = (   0.000000   0.707107   0.707107 )  
               a(2) = (   0.707107   0.000000   0.707107 )  
               a(3) = (   0.707107   0.707107   0.000000 )  

     reciprocal axes: (cart. coord. in units 2 pi/alat)
               b(1) = ( -0.707107  0.707107  0.707107 )  
               b(2) = (  0.707107 -0.707107  0.707107 )  
               b(3) = (  0.707107  0.707107 -0.707107 )  


     PseudoPot. # 1 for Ga read from file:
     ../Pseudos/31-Ga.PBE.UPF
     MD5 check sum: d2addd91d8bcf9a88adfbbdfd2637de8
     Pseudo is Norm-conserving, Zval =  3.0
     Generated using FHI98PP, converted with fhi2upf.x v.5.0.2
     Using radial grid of  529 points,  3 beta functions with: 
                l(1) =   1
                l(2) =   2
                l(3) =   3

     PseudoPot. # 2 for As read from file:
     ../Pseudos/33-As.PBE.UPF
     MD5 check sum: 9c0f5dd9d369d21dd57660ed5a27ee1c
     Pseudo is Norm-conserving, Zval =  5.0
     Generated using FHI98PP, converted with fhi2upf.x v.5.0.2
     Using radial grid of  531 points,  3 beta functions with: 
                l(1) =   0
                l(2) =   1
                l(3) =   3

     atomic species   valence    mass     pseudopotential
        Ga             3.00    69.72300     Ga( 1.00)
        As             5.00    74.92160     As( 1.00)

     24 Sym. Ops. (no inversion) found



   Cartesian axes

     site n.     atom                  positions (alat units)
         1           Ga  tau(   1) = (   0.0000000   0.0000000   0.0000000  )
         2           As  tau(   2) = (   0.3535534   0.3535534   0.3535534  )

     number of k points=    10
                       cart. coord. in units 2pi/alat
        k(    1) = (   0.5296230  -0.1760696   0.1774838), wk =   0.3750000
        k(    2) = (  -0.1774838   0.1774838   0.1774838), wk =   0.0625000
        k(    3) = (   0.1760696   0.1774838   0.1774838), wk =   0.1875000
        k(    4) = (   0.5296230   0.5310372  -0.1760696), wk =   0.3750000
        k(    5) = (   0.1760696  -0.1760696   0.5310372), wk =   0.1875000
        k(    6) = (   0.8831764   0.1774838   0.1774838), wk =   0.1875000
        k(    7) = (   0.1760696   0.8845906  -0.1760696), wk =   0.1875000
        k(    8) = (  -0.5310372   0.5310372   0.5310372), wk =   0.0625000
        k(    9) = (  -0.1774838   0.8845906   0.1774838), wk =   0.1875000
        k(   10) = (   0.5296230   0.5310372   0.5310372), wk =   0.1875000

     Dense  grid:     1291 G-vectors     FFT dimensions: (  15,  15,  15)

     Largest allocated arrays     est. size (Mb)     dimensions
        Kohn-Sham Wavefunctions         0.05 Mb     (     164,   20)
        NL pseudopotentials             0.07 Mb     (     164,   26)
        Each V/rho on FFT grid          0.05 Mb     (    3375)
        Each G-vector array             0.01 Mb     (    1291)
        G-vector shells                 0.00 Mb     (      40)
     Largest temporary arrays     est. size (Mb)     dimensions
        Auxiliary wavefunctions         0.20 Mb     (     164,   80)
        Each subspace H/S matrix        0.10 Mb     (      80,   80)
        Each <psi_i|beta_j> matrix      0.01 Mb     (      26,   20)

     The potential is recalculated from file :
     ./GaAs.save/charge-density.dat

     Starting wfc are   32 randomized atomic wfcs

     Band Structure Calculation
     Davidson diagonalization with overlap
     c_bands:  1 eigenvalues not converged

     ethr =  1.25E-12,  avg # of iterations = 34.8

     total cpu time spent up to now is        0.8 secs

     End of band structure calculation

          k = 0.5296-0.1761 0.1775 (   164 PWs)   bands (ev):

    -5.4570  -1.0477   1.9751   3.1580   7.7490  10.2191  11.9906  12.7154
    16.2395  17.7710  18.1455  18.7888  20.4331  23.3296  24.2266  25.2790
    26.2793  26.5355  26.7870  28.7923

          k =-0.1775 0.1775 0.1775 (   162 PWs)   bands (ev):

    -6.8167   1.1962   4.6882   4.6882   6.9613  10.1041  10.1041  11.5897
    14.3072  15.1520  15.1520  17.4429  21.5346  21.5346  24.1320  24.9274
    24.9274  25.2537  32.8906  33.0929

          k = 0.1761 0.1775 0.1775 (   162 PWs)   bands (ev):

    -6.8202   1.2077   4.6870   4.6948   6.9630  10.0967  10.1066  11.5787
    14.3094  15.1408  15.1591  17.4297  21.5099  21.5309  24.1166  24.9334
    24.9555  25.2701  32.8863  33.0851

          k = 0.5296 0.5310-0.1761 (   164 PWs)   bands (ev):

    -5.4509  -1.0533   1.9650   3.1541   7.7463  10.2210  12.0006  12.7276
    16.2328  17.7594  18.1609  18.8045  20.4476  23.3434  24.2421  25.2724
    26.2557  26.5133  26.8019  28.7897

          k = 0.1761-0.1761 0.5310 (   164 PWs)   bands (ev):

    -5.4515  -1.0501   1.9654   3.1510   7.7441  10.2101  12.0027  12.7372
    16.2415  17.7680  18.1672  18.8029  20.4437  23.3332  24.2253  25.2798
    26.2617  26.4974  26.7891  28.7898

          k = 0.8832 0.1775 0.1775 (   164 PWs)   bands (ev):

    -5.4504  -1.0565   1.9646   3.1573   7.7483  10.2318  11.9990  12.7175
    16.2242  17.7506  18.1542  18.8065  20.4513  23.3539  24.2586  25.2648
    26.2495  26.5289  26.8151  28.7898

          k = 0.1761 0.8846-0.1761 (   164 PWs)   bands (ev):

    -5.4576  -1.0445   1.9755   3.1549   7.7468  10.2083  11.9926  12.7250
    16.2482  17.7795  18.1517  18.7874  20.4293  23.3194  24.2098  25.2865
    26.2847  26.5196  26.7748  28.7923

          k =-0.5310 0.5310 0.5310 (   162 PWs)   bands (ev):

    -6.8270   1.2308   4.6965   4.6965   6.9661  10.0966  10.0966  11.5567
    14.3136  15.1459  15.1459  17.4034  21.4922  21.4922  24.0853  24.9793
    24.9793  25.3015  32.8813  33.0805

          k =-0.1775 0.8846 0.1775 (   164 PWs)   bands (ev):

    -5.4564  -1.0510   1.9748   3.1612   7.7510  10.2298  11.9892  12.7054
    16.2310  17.7623  18.1389  18.7907  20.4366  23.3402  24.2431  25.2714
    26.2735  26.5512  26.7996  28.7926

          k = 0.5296 0.5310 0.5310 (   162 PWs)   bands (ev):

    -6.8236   1.2193   4.6899   4.6974   6.9646  10.0942  10.1041  11.5677
    14.3115  15.1388  15.1570  17.4166  21.4959  21.5167  24.1010  24.9513
    24.9721  25.2861  32.8832  33.0804

     Writing output data file GaAs.save

     init_run     :      0.05s CPU      0.05s WALL (       1 calls)
     electrons    :      0.73s CPU      0.74s WALL (       1 calls)

     Called by init_run:
     wfcinit      :      0.00s CPU      0.00s WALL (       1 calls)
     potinit      :      0.00s CPU      0.00s WALL (       1 calls)

     Called by electrons:
     c_bands      :      0.73s CPU      0.74s WALL (       1 calls)
     v_of_rho     :      0.00s CPU      0.00s WALL (       1 calls)

     Called by c_bands:
     init_us_2    :      0.00s CPU      0.00s WALL (      10 calls)
     cegterg      :      0.70s CPU      0.70s WALL (      21 calls)

     Called by *egterg:
     h_psi        :      0.17s CPU      0.18s WALL (     379 calls)
     g_psi        :      0.00s CPU      0.00s WALL (     348 calls)
     cdiaghg      :      0.41s CPU      0.41s WALL (     358 calls)

     Called by h_psi:
     add_vuspsi   :      0.02s CPU      0.02s WALL (     379 calls)

     General routines
     calbec       :      0.02s CPU      0.02s WALL (     379 calls)
     fft          :      0.00s CPU      0.00s WALL (      10 calls)
     fftw         :      0.11s CPU      0.11s WALL (    6602 calls)
     davcio       :      0.00s CPU      0.00s WALL (      10 calls)

     Parallel routines
     fft_scatter  :      0.01s CPU      0.01s WALL (    6612 calls)

     PWSCF        :     0.86s CPU         0.88s WALL


   This run was terminated on:  11:29:48  12Nov2015            

=------------------------------------------------------------------------------=
   JOB DONE.
=------------------------------------------------------------------------------=
